<VTKFile type="StructuredGrid" version="0.1" byte_order="LittleEndian">
<StructuredGrid WholeExtent="1 101 1 101 0 0">
<Piece Extent="1 101 1 51 0 0">
<PointData></PointData>
<CellData></CellData>
<Points>
<DataArray NumberOfComponents="3" format="ascii" type ="Float32" Name="mesh">
0.000000 0.000000 0.0
0.010000 0.000000 0.0
0.020000 0.000000 0.0
0.030000 0.000000 0.0
0.040000 0.000000 0.0
0.050000 0.000000 0.0
0.060000 0.000000 0.0
0.070000 0.000000 0.0
0.080000 0.000000 0.0
0.090000 0.000000 0.0
0.100000 0.000000 0.0
0.110000 0.000000 0.0
0.120000 0.000000 0.0
0.130000 0.000000 0.0
0.140000 0.000000 0.0
0.150000 0.000000 0.0
0.160000 0.000000 0.0
0.170000 0.000000 0.0
0.180000 0.000000 0.0
0.190000 0.000000 0.0
0.200000 0.000000 0.0
0.210000 0.000000 0.0
0.220000 0.000000 0.0
0.230000 0.000000 0.0
0.240000 0.000000 0.0
0.250000 0.000000 0.0
0.260000 0.000000 0.0
0.270000 0.000000 0.0
0.280000 0.000000 0.0
0.290000 0.000000 0.0
0.300000 0.000000 0.0
0.310000 0.000000 0.0
0.320000 0.000000 0.0
0.330000 0.000000 0.0
0.340000 0.000000 0.0
0.350000 0.000000 0.0
0.360000 0.000000 0.0
0.370000 0.000000 0.0
0.380000 0.000000 0.0
0.390000 0.000000 0.0
0.400000 0.000000 0.0
0.410000 0.000000 0.0
0.420000 0.000000 0.0
0.430000 0.000000 0.0
0.440000 0.000000 0.0
0.450000 0.000000 0.0
0.460000 0.000000 0.0
0.470000 0.000000 0.0
0.480000 0.000000 0.0
0.490000 0.000000 0.0
0.500000 0.000000 0.0
0.510000 0.000000 0.0
0.520000 0.000000 0.0
0.530000 0.000000 0.0
0.540000 0.000000 0.0
0.550000 0.000000 0.0
0.560000 0.000000 0.0
0.570000 0.000000 0.0
0.580000 0.000000 0.0
0.590000 0.000000 0.0
0.600000 0.000000 0.0
0.610000 0.000000 0.0
0.620000 0.000000 0.0
0.630000 0.000000 0.0
0.640000 0.000000 0.0
0.650000 0.000000 0.0
0.660000 0.000000 0.0
0.670000 0.000000 0.0
0.680000 0.000000 0.0
0.690000 0.000000 0.0
0.700000 0.000000 0.0
0.710000 0.000000 0.0
0.720000 0.000000 0.0
0.730000 0.000000 0.0
0.740000 0.000000 0.0
0.750000 0.000000 0.0
0.760000 0.000000 0.0
0.770000 0.000000 0.0
0.780000 0.000000 0.0
0.790000 0.000000 0.0
0.800000 0.000000 0.0
0.810000 0.000000 0.0
0.820000 0.000000 0.0
0.830000 0.000000 0.0
0.840000 0.000000 0.0
0.850000 0.000000 0.0
0.860000 0.000000 0.0
0.870000 0.000000 0.0
0.880000 0.000000 0.0
0.890000 0.000000 0.0
0.900000 0.000000 0.0
0.910000 0.000000 0.0
0.920000 0.000000 0.0
0.930000 0.000000 0.0
0.940000 0.000000 0.0
0.950000 0.000000 0.0
0.960000 0.000000 0.0
0.970000 0.000000 0.0
0.980000 0.000000 0.0
0.990000 0.000000 0.0
1.000000 0.000000 0.0
0.000000 0.010000 0.0
0.010000 0.010000 0.0
0.020000 0.010000 0.0
0.030000 0.010000 0.0
0.040000 0.010000 0.0
0.050000 0.010000 0.0
0.060000 0.010000 0.0
0.070000 0.010000 0.0
0.080000 0.010000 0.0
0.090000 0.010000 0.0
0.100000 0.010000 0.0
0.110000 0.010000 0.0
0.120000 0.010000 0.0
0.130000 0.010000 0.0
0.140000 0.010000 0.0
0.150000 0.010000 0.0
0.160000 0.010000 0.0
0.170000 0.010000 0.0
0.180000 0.010000 0.0
0.190000 0.010000 0.0
0.200000 0.010000 0.0
0.210000 0.010000 0.0
0.220000 0.010000 0.0
0.230000 0.010000 0.0
0.240000 0.010000 0.0
0.250000 0.010000 0.0
0.260000 0.010000 0.0
0.270000 0.010000 0.0
0.280000 0.010000 0.0
0.290000 0.010000 0.0
0.300000 0.010000 0.0
0.310000 0.010000 0.0
0.320000 0.010000 0.0
0.330000 0.010000 0.0
0.340000 0.010000 0.0
0.350000 0.010000 0.0
0.360000 0.010000 0.0
0.370000 0.010000 0.0
0.380000 0.010000 0.0
0.390000 0.010000 0.0
0.400000 0.010000 0.0
0.410000 0.010000 0.0
0.420000 0.010000 0.0
0.430000 0.010000 0.0
0.440000 0.010000 0.0
0.450000 0.010000 0.0
0.460000 0.010000 0.0
0.470000 0.010000 0.0
0.480000 0.010000 0.0
0.490000 0.010000 0.0
0.500000 0.010000 0.0
0.510000 0.010000 0.0
0.520000 0.010000 0.0
0.530000 0.010000 0.0
0.540000 0.010000 0.0
0.550000 0.010000 0.0
0.560000 0.010000 0.0
0.570000 0.010000 0.0
0.580000 0.010000 0.0
0.590000 0.010000 0.0
0.600000 0.010000 0.0
0.610000 0.010000 0.0
0.620000 0.010000 0.0
0.630000 0.010000 0.0
0.640000 0.010000 0.0
0.650000 0.010000 0.0
0.660000 0.010000 0.0
0.670000 0.010000 0.0
0.680000 0.010000 0.0
0.690000 0.010000 0.0
0.700000 0.010000 0.0
0.710000 0.010000 0.0
0.720000 0.010000 0.0
0.730000 0.010000 0.0
0.740000 0.010000 0.0
0.750000 0.010000 0.0
0.760000 0.010000 0.0
0.770000 0.010000 0.0
0.780000 0.010000 0.0
0.790000 0.010000 0.0
0.800000 0.010000 0.0
0.810000 0.010000 0.0
0.820000 0.010000 0.0
0.830000 0.010000 0.0
0.840000 0.010000 0.0
0.850000 0.010000 0.0
0.860000 0.010000 0.0
0.870000 0.010000 0.0
0.880000 0.010000 0.0
0.890000 0.010000 0.0
0.900000 0.010000 0.0
0.910000 0.010000 0.0
0.920000 0.010000 0.0
0.930000 0.010000 0.0
0.940000 0.010000 0.0
0.950000 0.010000 0.0
0.960000 0.010000 0.0
0.970000 0.010000 0.0
0.980000 0.010000 0.0
0.990000 0.010000 0.0
1.000000 0.010000 0.0
0.000000 0.020000 0.0
0.010000 0.020000 0.0
0.020000 0.020000 0.0
0.030000 0.020000 0.0
0.040000 0.020000 0.0
0.050000 0.020000 0.0
0.060000 0.020000 0.0
0.070000 0.020000 0.0
0.080000 0.020000 0.0
0.090000 0.020000 0.0
0.100000 0.020000 0.0
0.110000 0.020000 0.0
0.120000 0.020000 0.0
0.130000 0.020000 0.0
0.140000 0.020000 0.0
0.150000 0.020000 0.0
0.160000 0.020000 0.0
0.170000 0.020000 0.0
0.180000 0.020000 0.0
0.190000 0.020000 0.0
0.200000 0.020000 0.0
0.210000 0.020000 0.0
0.220000 0.020000 0.0
0.230000 0.020000 0.0
0.240000 0.020000 0.0
0.250000 0.020000 0.0
0.260000 0.020000 0.0
0.270000 0.020000 0.0
0.280000 0.020000 0.0
0.290000 0.020000 0.0
0.300000 0.020000 0.0
0.310000 0.020000 0.0
0.320000 0.020000 0.0
0.330000 0.020000 0.0
0.340000 0.020000 0.0
0.350000 0.020000 0.0
0.360000 0.020000 0.0
0.370000 0.020000 0.0
0.380000 0.020000 0.0
0.390000 0.020000 0.0
0.400000 0.020000 0.0
0.410000 0.020000 0.0
0.420000 0.020000 0.0
0.430000 0.020000 0.0
0.440000 0.020000 0.0
0.450000 0.020000 0.0
0.460000 0.020000 0.0
0.470000 0.020000 0.0
0.480000 0.020000 0.0
0.490000 0.020000 0.0
0.500000 0.020000 0.0
0.510000 0.020000 0.0
0.520000 0.020000 0.0
0.530000 0.020000 0.0
0.540000 0.020000 0.0
0.550000 0.020000 0.0
0.560000 0.020000 0.0
0.570000 0.020000 0.0
0.580000 0.020000 0.0
0.590000 0.020000 0.0
0.600000 0.020000 0.0
0.610000 0.020000 0.0
0.620000 0.020000 0.0
0.630000 0.020000 0.0
0.640000 0.020000 0.0
0.650000 0.020000 0.0
0.660000 0.020000 0.0
0.670000 0.020000 0.0
0.680000 0.020000 0.0
0.690000 0.020000 0.0
0.700000 0.020000 0.0
0.710000 0.020000 0.0
0.720000 0.020000 0.0
0.730000 0.020000 0.0
0.740000 0.020000 0.0
0.750000 0.020000 0.0
0.760000 0.020000 0.0
0.770000 0.020000 0.0
0.780000 0.020000 0.0
0.790000 0.020000 0.0
0.800000 0.020000 0.0
0.810000 0.020000 0.0
0.820000 0.020000 0.0
0.830000 0.020000 0.0
0.840000 0.020000 0.0
0.850000 0.020000 0.0
0.860000 0.020000 0.0
0.870000 0.020000 0.0
0.880000 0.020000 0.0
0.890000 0.020000 0.0
0.900000 0.020000 0.0
0.910000 0.020000 0.0
0.920000 0.020000 0.0
0.930000 0.020000 0.0
0.940000 0.020000 0.0
0.950000 0.020000 0.0
0.960000 0.020000 0.0
0.970000 0.020000 0.0
0.980000 0.020000 0.0
0.990000 0.020000 0.0
1.000000 0.020000 0.0
0.000000 0.030000 0.0
0.010000 0.030000 0.0
0.020000 0.030000 0.0
0.030000 0.030000 0.0
0.040000 0.030000 0.0
0.050000 0.030000 0.0
0.060000 0.030000 0.0
0.070000 0.030000 0.0
0.080000 0.030000 0.0
0.090000 0.030000 0.0
0.100000 0.030000 0.0
0.110000 0.030000 0.0
0.120000 0.030000 0.0
0.130000 0.030000 0.0
0.140000 0.030000 0.0
0.150000 0.030000 0.0
0.160000 0.030000 0.0
0.170000 0.030000 0.0
0.180000 0.030000 0.0
0.190000 0.030000 0.0
0.200000 0.030000 0.0
0.210000 0.030000 0.0
0.220000 0.030000 0.0
0.230000 0.030000 0.0
0.240000 0.030000 0.0
0.250000 0.030000 0.0
0.260000 0.030000 0.0
0.270000 0.030000 0.0
0.280000 0.030000 0.0
0.290000 0.030000 0.0
0.300000 0.030000 0.0
0.310000 0.030000 0.0
0.320000 0.030000 0.0
0.330000 0.030000 0.0
0.340000 0.030000 0.0
0.350000 0.030000 0.0
0.360000 0.030000 0.0
0.370000 0.030000 0.0
0.380000 0.030000 0.0
0.390000 0.030000 0.0
0.400000 0.030000 0.0
0.410000 0.030000 0.0
0.420000 0.030000 0.0
0.430000 0.030000 0.0
0.440000 0.030000 0.0
0.450000 0.030000 0.0
0.460000 0.030000 0.0
0.470000 0.030000 0.0
0.480000 0.030000 0.0
0.490000 0.030000 0.0
0.500000 0.030000 0.0
0.510000 0.030000 0.0
0.520000 0.030000 0.0
0.530000 0.030000 0.0
0.540000 0.030000 0.0
0.550000 0.030000 0.0
0.560000 0.030000 0.0
0.570000 0.030000 0.0
0.580000 0.030000 0.0
0.590000 0.030000 0.0
0.600000 0.030000 0.0
0.610000 0.030000 0.0
0.620000 0.030000 0.0
0.630000 0.030000 0.0
0.640000 0.030000 0.0
0.650000 0.030000 0.0
0.660000 0.030000 0.0
0.670000 0.030000 0.0
0.680000 0.030000 0.0
0.690000 0.030000 0.0
0.700000 0.030000 0.0
0.710000 0.030000 0.0
0.720000 0.030000 0.0
0.730000 0.030000 0.0
0.740000 0.030000 0.0
0.750000 0.030000 0.0
0.760000 0.030000 0.0
0.770000 0.030000 0.0
0.780000 0.030000 0.0
0.790000 0.030000 0.0
0.800000 0.030000 0.0
0.810000 0.030000 0.0
0.820000 0.030000 0.0
0.830000 0.030000 0.0
0.840000 0.030000 0.0
0.850000 0.030000 0.0
0.860000 0.030000 0.0
0.870000 0.030000 0.0
0.880000 0.030000 0.0
0.890000 0.030000 0.0
0.900000 0.030000 0.0
0.910000 0.030000 0.0
0.920000 0.030000 0.0
0.930000 0.030000 0.0
0.940000 0.030000 0.0
0.950000 0.030000 0.0
0.960000 0.030000 0.0
0.970000 0.030000 0.0
0.980000 0.030000 0.0
0.990000 0.030000 0.0
1.000000 0.030000 0.0
0.000000 0.040000 0.0
0.010000 0.040000 0.0
0.020000 0.040000 0.0
0.030000 0.040000 0.0
0.040000 0.040000 0.0
0.050000 0.040000 0.0
0.060000 0.040000 0.0
0.070000 0.040000 0.0
0.080000 0.040000 0.0
0.090000 0.040000 0.0
0.100000 0.040000 0.0
0.110000 0.040000 0.0
0.120000 0.040000 0.0
0.130000 0.040000 0.0
0.140000 0.040000 0.0
0.150000 0.040000 0.0
0.160000 0.040000 0.0
0.170000 0.040000 0.0
0.180000 0.040000 0.0
0.190000 0.040000 0.0
0.200000 0.040000 0.0
0.210000 0.040000 0.0
0.220000 0.040000 0.0
0.230000 0.040000 0.0
0.240000 0.040000 0.0
0.250000 0.040000 0.0
0.260000 0.040000 0.0
0.270000 0.040000 0.0
0.280000 0.040000 0.0
0.290000 0.040000 0.0
0.300000 0.040000 0.0
0.310000 0.040000 0.0
0.320000 0.040000 0.0
0.330000 0.040000 0.0
0.340000 0.040000 0.0
0.350000 0.040000 0.0
0.360000 0.040000 0.0
[...]
<PointData>
<DataArray NumberOfComponents="1" format="ascii" type ="Float32" Name="phi">
0.251795
0.496518
0.489519
0.482596
0.475749
0.468982
0.462296
0.455695
0.449181
0.442756
0.436424
0.430186
0.424047
0.418008
0.412073
0.406245
0.400527
0.394922
0.389434
0.384065
0.378819
0.373700
0.368710
0.363853
0.359134
0.354554
0.350118
0.345829
0.341691
0.337707
0.333881
0.330215
0.326714
0.323381
0.320219
0.317230
0.314419
0.311788
0.309339
0.307076
0.305001
0.303116
0.301424
0.299925
0.298623
0.297519
0.296614
0.295908
0.295404
0.295101
0.295000
0.295101
0.295404
0.295908
0.296614
0.297519
0.298623
0.299925
0.301424
0.303116
0.305001
0.307076
0.309339
0.311788
0.314419
0.317230
0.320219
0.323381
0.326714
0.330215
0.333881
0.337707
0.341691
0.345829
0.350118
0.354554
0.359134
0.363853
0.368710
0.373700
0.378819
0.384065
0.389434
0.394922
0.400527
0.406245
0.412073
0.418008
0.424047
0.430186
0.436424
0.442756
0.449181
0.455695
0.462296
0.468982
0.475749
0.482596
0.489519
0.496518
0.251795
0.250036
0.492965
0.485930
0.478970
0.472086
0.465282
0.458559
0.451920
0.445368
0.438905
0.432535
0.426259
0.420081
0.414003
0.408030
0.402163
0.396406
0.390762
0.385235
0.379828
0.374543
0.369386
0.364358
0.359464
0.354707
0.350091
0.345619
0.341295
0.337122
0.333104
0.329245
0.325547
0.322015
0.318652
0.315461
0.312445
0.309608
0.306952
0.304480
0.302195
0.300100
0.298197
0.296488
0.294975
0.293660
0.292544
0.291630
0.290918
0.290408
0.290102
0.290000
0.290102
0.290408
0.290918
0.291630
0.292544
0.293660
0.294975
0.296488
0.298197
0.300100
0.302195
0.304480
0.306952
0.309608
0.312445
0.315461
0.318652
0.322015
0.325547
0.329245
0.333104
0.337122
0.341295
0.345619
0.350091
0.354707
0.359464
0.364358
0.369386
0.374543
0.379828
0.385235
0.390762
0.396406
0.402163
0.408030
0.414003
0.420081
0.426259
0.432535
0.438905
0.445368
0.451920
0.458559
0.465282
0.472086
0.478970
0.485930
0.492965
0.250036
0.246554
0.485930
0.478823
0.471789
0.464831
0.457951
0.451153
0.444438
0.437809
0.431269
0.424820
0.418466
0.412209
0.406053
0.400000
0.394054
0.388218
0.382495
0.376888
0.371402
0.366039
0.360803
0.355698
0.350727
0.345894
0.341202
0.336656
0.332259
0.328015
0.323927
0.320000
0.316236
0.312640
0.309215
0.305964
0.302892
0.300000
0.297293
0.294773
0.292443
0.290306
0.288365
0.286621
0.285077
0.283735
0.282597
0.281664
0.280937
0.280416
0.280104
0.280000
0.280104
0.280416
0.280937
0.281664
0.282597
0.283735
0.285077
0.286621
0.288365
0.290306
0.292443
0.294773
0.297293
0.300000
0.302892
0.305964
0.309215
0.312640
0.316236
0.320000
0.323927
0.328015
0.332259
0.336656
0.341202
0.345894
0.350727
0.355698
0.360803
0.366039
0.371402
0.376888
0.382495
0.388218
0.394054
0.400000
0.406053
0.412209
0.418466
0.424820
0.431269
0.437809
0.444438
0.451153
0.457951
0.464831
0.471789
0.478823
0.485930
0.246554
0.243111
0.478970
0.471789
0.464680
0.457647
0.450692
0.443817
0.437024
0.430317
0.423699
0.417171
0.410737
0.404401
0.398164
0.392030
0.386003
0.380086
0.374282
0.368595
0.363028
0.357584
0.352268
0.347083
0.342033
0.337122
0.332353
0.327731
0.323259
0.318941
0.314782
0.310784
0.306952
0.303289
0.299800
0.296488
0.293356
0.290408
0.287647
0.285077
0.282701
0.280521
0.278539
0.276760
0.275184
0.273814
0.272652
0.271699
0.270956
0.270425
0.270106
0.270000
0.270106
0.270425
0.270956
0.271699
0.272652
0.273814
0.275184
0.276760
0.278539
0.280521
0.282701
0.285077
0.287647
0.290408
0.293356
0.296488
0.299800
0.303289
0.306952
0.310784
0.314782
0.318941
0.323259
0.327731
0.332353
0.337122
0.342033
0.347083
0.352268
0.357584
0.363028
0.368595
0.374282
0.380086
0.386003
0.392030
0.398164
0.404401
0.410737
0.417171
0.423699
0.430317
0.437024
0.443817
0.450692
0.457647
0.464680
0.471789
0.478970
0.243111
0.239706
0.472086
0.464831
0.457647
0.450538
0.443506
0.436553
0.429682
0.422896
0.416198
0.409590
0.403075
0.396657
0.390339
0.384123
0.378014
0.372014
0.366127
0.360357
0.354707
0.349181
0.343783
0.338516
0.333385
0.328394
0.323546
0.318845
0.314296
0.309902
0.305668
0.301597
0.297695
0.293964
0.290408
0.287032
0.283839
0.280833
0.278017
0.275395
0.272969
0.270744
0.268722
0.266905
0.265296
0.263897
0.262709
0.261736
0.260977
0.260435
0.260109
0.260000
0.260109
0.260435
0.260977
0.261736
0.262709
0.263897
0.265296
0.266905
0.268722
0.270744
0.272969
0.275395
0.278017
0.280833
0.283839
0.287032
0.290408
0.293964
0.297695
0.301597
0.305668
0.309902
0.314296
0.318845
0.323546
0.328394
0.333385
0.338516
0.343783
0.349181
0.354707
0.360357
0.366127
0.372014
0.378014
0.384123
0.390339
0.396657
0.403075
0.409590
0.416198
0.422896
0.429682
0.436553
0.443506
0.450538
0.457647
0.464831
0.472086
0.239706
0.236341
0.465282
0.457951
0.450692
0.443506
0.436396
0.429365
0.422415
0.415549
0.408769
0.402080
0.395483
0.388982
0.382580
0.376281
0.370088
0.364004
0.358032
0.352178
0.346443
0.340833
0.335350
0.330000
0.324786
0.319711
0.314782
0.310000
0.305371
0.300899
0.296588
0.292443
0.288467
0.284665
0.281041
0.277598
0.274342
0.271275
0.268402
0.265725
0.263249
0.260977
0.258912
0.257056
0.255412
0.253982
0.252769
0.251774
0.250999
0.250444
0.250111
0.250000
0.250111
0.250444
0.250999
0.251774
0.252769
0.253982
0.255412
0.257056
0.258912
0.260977
0.263249
0.265725
0.268402
0.271275
0.274342
0.277598
0.281041
0.284665
0.288467
0.292443
0.296588
0.300899
0.305371
0.310000
0.314782
0.319711
0.324786
0.330000
0.335350
0.340833
0.346443
0.352178
0.358032
0.364004
0.370088
0.376281
0.382580
0.388982
0.395483
0.402080
0.408769
0.415549
0.422415
0.429365
0.436396
0.443506
0.450692
0.457951
0.465282
0.236341
0.233017
0.458559
0.451153
0.443817
0.436553
0.429365
0.422254
0.415224
0.408276
0.401415
0.394643
0.387963
0.381378
0.374891
0.368507
0.362228
0.356058
0.350000
0.344059
0.338238
0.332541
0.326972
0.321536
0.316236
0.311077
0.306063
0.301199
0.296488
0.291935
0.287545
0.283322
0.279270
0.275395
0.271699
0.268188
0.264866
0.261736
0.258803
0.256070
0.253542
0.251221
0.249110
0.247214
0.245533
0.244072
0.242832
0.241814
0.241022
0.240454
0.240114
0.240000
0.240114
0.240454
0.241022
0.241814
0.242832
0.244072
0.245533
0.247214
0.249110
0.251221
0.253542
0.256070
0.258803
0.261736
0.264866
0.268188
0.271699
0.275395
0.279270
0.283322
0.287545
0.291935
0.296488
0.301199
0.306063
0.311077
0.316236
0.321536
0.326972
0.332541
0.338238
0.344059
0.350000
0.356058
0.362228
0.368507
0.374891
0.381378
0.387963
0.394643
0.401415
0.408276
0.415224
0.422254
0.429365
0.436553
0.443817
0.451153
0.458559
0.233017
0.229735
0.451920
0.444438
0.437024
0.429682
0.422415
0.415224
0.408112
0.401082
0.394138
0.387282
0.380517
0.373847
0.367274
0.360803
0.354437
0.348179
0.342033
0.336004
0.330094
0.324309
0.318652
0.313128
0.307740
0.302494
0.297393
0.292443
0.287647
0.283011
0.278539
0.274236
0.270106
0.266154
0.262385
0.258803
0.255412
0.252217
0.249222
0.246430
0.243847
0.241475
0.239318
0.237379
0.235660
0.234166
0.232897
0.231856
0.231045
0.230465
0.230116
0.230000
0.230116
0.230465
0.231045
0.231856
0.232897
0.234166
0.235660
0.237379
0.239318
0.241475
0.243847
0.246430
0.249222
0.252217
0.255412
0.258803
0.262385
0.266154
0.270106
0.274236
0.278539
0.283011
0.287647
0.292443
0.297393
0.302494
0.307740
0.313128
0.318652
0.324309
0.330094
0.336004
0.342033
0.348179
0.354437
0.360803
0.367274
0.373847
0.380517
0.387282
0.394138
0.401082
0.408112
0.415224
0.422415
0.429682
0.437024
0.444438
0.451920
0.229735
0.226497
0.445368
0.437809
0.430317
0.422896
0.415549
0.408276
0.401082
0.393970
0.386941
0.380000
0.373149
0.366392
0.359732
0.353173
0.346717
0.340370
0.334135
0.328015
0.322015
0.316140
0.310392
0.304777
0.299300
0.293964
0.288774
0.283735
0.278853
0.274131
0.269574
0.265188
0.260977
0.256946
0.253100
0.249444
0.245982
0.242719
0.239659
0.236807
0.234166
0.231741
0.229535
0.227551
0.225793
0.224264
0.222966
0.221900
0.221070
0.220476
0.220119
0.220000
0.220119
0.220476
0.221070
0.221900
0.222966
0.224264
0.225793
0.227551
0.229535
0.231741
0.234166
0.236807
0.239659
0.242719
0.245982
0.249444
0.253100
0.256946
0.260977
0.265188
0.269574
0.274131
0.278853
0.283735
0.288774
0.293964
0.299300
0.304777
0.310392
0.316140
0.322015
0.328015
0.334135
0.340370
0.346717
0.353173
0.359732
0.366392
0.373149
0.380000
0.386941
0.393970
0.401082
0.408276
0.415549
0.422896
0.430317
0.437809
0.445368
0.226497
0.223303
0.438905
0.431269
0.423699
0.416198
0.408769
0.401415
0.394138
0.386941
0.379828
0.372800
0.365862
0.359017
0.352268
0.345619
0.339073
0.332635
0.326308
0.320096
0.314004
0.308035
0.302195
0.296488
0.290918
0.285489
0.280208
0.275079
0.270106
0.265296
0.260652
0.256180
0.251885
0.247772
0.243847
0.240114
0.236578
0.233244
0.230116
0.227200
0.224500
0.222019
0.219762
0.217732
0.215933
0.214367
0.213038
0.211947
0.211096
0.210488
0.210122
0.210000
0.210122
0.210488
0.211096
0.211947
0.213038
0.214367
0.215933
0.217732
0.219762
0.222019
0.224500
0.227200
0.230116
0.233244
0.236578
0.240114
0.243847
0.247772
0.251885
0.256180
0.260652
0.265296
0.270106
0.275079
0.280208
0.285489
0.290918
0.296488
0.302195
0.308035
0.314004
0.320096
0.326308
0.332635
0.339073
0.345619
0.352268
0.359017
0.365862
0.372800
0.379828
0.386941
0.394138
0.401415
0.408769
0.416198
0.423699
0.431269
0.438905
0.223303
0.220156
0.432535
0.424820
0.417171
0.409590
0.402080
0.394643
0.387282
0.380000
0.372800
0.365685
0.358659
0.351725
0.344885
0.338145
0.331507
0.324976
0.318556
0.312250
0.306063
0.300000
0.294065
0.288262
0.282597
0.277074
0.271699
0.266476
0.261411
0.256508
0.251774
0.247214
0.242832
0.238634
0.234626
0.230813
0.227200
0.223792
0.220595
0.217612
0.214849
0.212311
0.210000
0.207922
0.206079
0.204475
0.203113
0.201995
0.201123
0.200500
0.200125
0.200000
0.200125
0.200500
0.201123
0.201995
0.203113
0.204475
0.206079
0.207922
0.210000
0.212311
0.214849
0.217612
0.220595
0.223792
0.227200
0.230813
0.234626
0.238634
0.242832
0.247214
0.251774
0.256508
0.261411
0.266476
0.271699
0.277074
0.282597
0.288262
0.294065
0.300000
0.306063
0.312250
0.318556
0.324976
0.331507
0.338145
0.344885
0.351725
0.358659
0.365685
0.372800
0.380000
0.387282
0.394643
0.402080
0.409590
0.417171
0.424820
0.432535
0.220156
0.217057
0.426259
0.418466
0.410737
0.403075
0.395483
0.387963
0.380517
0.373149
0.365862
0.358659
0.351543
0.344518
0.337587
0.330754
0.324023
0.317397
0.310882
0.304480
0.298197
0.292037
0.286004
0.280104
0.274342
0.268722
0.263249
0.257930
0.252769
0.247772
0.242945
0.238292
0.233820
0.229535
0.225441
0.221545
0.217852
0.214367
0.211096
0.208044
0.205216
0.202616
0.200250
0.198121
0.196232
0.194588
0.193192
0.192046
0.191152
0.190512
0.190128
0.190000
0.190128
0.190512
0.191152
0.192046
0.193192
0.194588
0.196232
0.198121
0.200250
0.202616
0.205216
0.208044
0.211096
0.214367
0.217852
0.221545
0.225441
0.229535
0.233820
0.238292
0.242945
0.247772
0.252769
0.257930
0.263249
0.268722
0.274342
0.280104
0.286004
0.292037
0.298197
0.304480
0.310882
0.317397
0.324023
0.330754
0.337587
0.344518
0.351543
0.358659
0.365862
0.373149
0.380517
0.387963
0.395483
0.403075
0.410737
0.418466
0.426259
0.217057
0.214006
0.420081
0.412209
0.404401
0.396657
0.388982
0.381378
0.373847
0.366392
0.359017
0.351725
0.344518
0.337401
0.330377
0.323450
0.316624
0.309902
0.303289
0.296790
0.290408
0.284149
0.278017
0.272017
0.266154
0.260435
0.254863
0.249444
0.244185
0.239090
0.234166
0.229418
0.224853
0.220476
0.216293
0.212311
0.208534
0.204969
0.201622
0.198497
0.195601
0.192938
0.190512
0.188330
0.186394
0.184708
0.183275
0.182099
0.181182
0.180526
0.180132
0.180000
0.180132
0.180526
0.181182
0.182099
0.183275
0.184708
0.186394
0.188330
0.190512
0.192938
0.195601
0.198497
0.201622
0.204969
0.208534
0.212311
0.216293
0.220476
0.224853
0.229418
0.234166
0.239090
0.244185
0.249444
0.254863
0.260435
0.266154
0.272017
0.278017
0.284149
0.290408
0.296790
0.303289
0.309902
0.316624
0.323450
0.330377
0.337401
0.344518
0.351725
0.359017
0.366392
0.373847
0.381378
0.388982
0.396657
0.404401
0.412209
0.420081
0.214006
0.211006
0.414003
0.406053
0.398164
0.390339
0.382580
0.374891
0.367274
0.359732
0.352268
0.344885
0.337587
0.330377
0.323259
0.316236
0.309313
0.302494
0.295782
0.289183
0.282701
0.276340
0.270106
0.264004
0.258039
0.252217
0.246542
0.241022
0.235660
0.230465
0.225441
0.220595
0.215933
0.211461
0.207185
0.203113
0.199249
0.195601
0.192173
0.188973
0.186005
0.183275
0.180789
0.178550
0.176563
0.174833
0.173363
0.172156
0.171214
0.170540
0.170135
0.170000
0.170135
0.170540
0.171214
0.172156
0.173363
0.174833
0.176563
0.178550
0.180789
0.183275
0.186005
0.188973
0.192173
0.195601
0.199249
0.203113
0.207185
0.211461
0.215933
0.220595
0.225441
0.230465
0.235660
0.241022
0.246542
0.252217
0.258039
0.264004
0.270106
0.276340
0.282701
0.289183
0.295782
0.302494
0.309313
0.316236
0.323259
0.330377
0.337587
0.344885
0.352268
0.359732
0.367274
0.374891
0.382580
0.390339
0.398164
0.406053
0.414003
0.211006
0.208058
0.408030
0.400000
0.392030
0.384123
0.376281
0.368507
0.360803
0.353173
0.345619
0.338145
0.330754
0.323450
0.316236
0.309117
0.302096
0.295177
0.288365
0.281664
0.275079
0.268615
0.262277
0.256070
0.250000
0.244072
0.238292
0.232666
0.227200
0.221900
0.216773
0.211825
0.207063
0.202492
0.198121
0.193954
0.190000
0.186264
0.182753
0.179473
0.176431
0.173631
0.171080
0.168782
0.166742
0.164966
0.163456
0.162215
0.161248
0.160555
0.160139
0.160000
0.160139
0.160555
0.161248
0.162215
0.163456
0.164966
0.166742
0.168782
0.171080
0.173631
0.176431
0.179473
0.182753
0.186264
0.190000
0.193954
0.198121
0.202492
0.207063
0.211825
0.216773
0.221900
0.227200
0.232666
0.238292
0.244072
0.250000
0.256070
0.262277
0.268615
0.275079
0.281664
0.288365
0.295177
0.302096
0.309117
0.316236
0.323450
0.330754
0.338145
0.345619
0.353173
0.360803
0.368507
0.376281
0.384123
0.392030
0.400000
0.408030
0.208058
0.205164
0.402163
0.394054
0.386003
0.378014
0.370088
0.362228
0.354437
0.346717
0.339073
0.331507
0.324023
0.316624
0.309313
0.302096
0.294975
0.287955
0.281041
0.274236
0.267547
0.260977
0.254533
0.248219
0.242041
0.236005
0.230116
0.224382
0.218808
0.213401
0.208167
0.203113
0.198246
0.193573
0.189102
0.184838
0.180789
0.176962
0.173363
0.170000
0.166879
0.164005
0.161386
0.159026
0.156931
0.155106
0.153553
0.152278
0.151283
0.150571
0.150143
0.150000
0.150143
0.150571
0.151283
0.152278
0.153553
0.155106
0.156931
0.159026
0.161386
0.164005
0.166879
0.170000
0.173363
0.176962
0.180789
0.184838
0.189102
0.193573
0.198246
0.203113
0.208167
0.213401
0.218808
0.224382
0.230116
0.236005
0.242041
0.248219
0.254533
0.260977
0.267547
0.274236
0.281041
0.287955
0.294975
0.302096
0.309313
0.316624
0.324023
0.331507
0.339073
0.346717
0.354437
0.362228
0.370088
0.378014
0.386003
0.394054
0.402163
0.205164
0.202324
0.396406
0.388218
0.380086
0.372014
0.364004
0.356058
0.348179
0.340370
0.332635
0.324976
0.317397
0.309902
0.302494
0.295177
0.287955
0.280833
0.273814
0.266905
0.260109
0.253431
0.246878
0.240454
0.234166
0.228019
0.222019
0.216173
0.210488
0.204969
0.199625
0.194462
0.189487
0.184708
0.180132
0.175766
0.171618
0.167696
0.164005
0.160555
0.157351
0.154401
0.151710
0.149285
0.147131
0.145254
0.143657
0.142345
0.141321
0.140588
0.140147
0.140000
0.140147
0.140588
0.141321
0.142345
0.143657
0.145254
0.147131
0.149285
0.151710
0.154401
0.157351
0.160555
0.164005
0.167696
0.171618
0.175766
0.180132
0.184708
0.189487
0.194462
0.199625
0.204969
0.210488
0.216173
0.222019
0.228019
0.234166
0.240454
0.246878
0.253431
0.260109
0.266905
0.273814
0.280833
0.287955
0.295177
0.302494
0.309902
0.317397
0.324976
0.332635
0.340370
0.348179
0.356058
0.364004
0.372014
0.380086
0.388218
0.396406
0.202324
0.199541
0.390762
0.382495
0.374282
0.366127
0.358032
0.350000
0.342033
0.334135
0.326308
0.318556
0.310882
0.303289
0.295782
0.288365
0.281041
0.273814
0.266690
0.259674
0.252769
0.245982
0.239318
0.232782
0.226380
0.220119
0.214005
0.208044
0.202244
0.196611
0.191152
0.185876
0.180789
0.175899
0.171214
0.166742
0.162491
0.158469
0.154683
0.151141
0.147851
0.144819
0.142053
0.139559
0.137343
0.135410
0.133766
0.132415
0.131361
0.130606
0.130151
0.130000
0.130151
0.130606
0.131361
0.132415
0.133766
0.135410
0.137343
0.139559
0.142053
0.144819
0.147851
0.151141
0.154683
0.158469
0.162491
0.166742
0.171214
0.175899
0.180789
0.185876
0.191152
0.196611
0.202244
0.208044
0.214005
0.220119
0.226380
0.232782
0.239318
0.245982
0.252769
0.259674
0.266690
0.273814
0.281041
0.288365
0.295782
0.303289
0.310882
0.318556
0.326308
0.334135
0.342033
0.350000
0.358032
0.366127
0.374282
0.382495
0.390762
0.199541
0.196816
0.385235
0.376888
0.368595
0.360357
0.352178
0.344059
0.336004
0.328015
0.320096
0.312250
0.304480
0.296790
0.289183
0.281664
0.274236
0.266905
0.259674
0.252548
0.245533
0.238634
0.231856
0.225206
0.218688
0.212311
0.206079
0.200000
0.194081
0.188330
0.182753
0.177359
0.172156
0.167151
0.162353
0.157771
0.153412
0.149285
0.145398
0.141760
0.138378
0.135261
0.132415
0.129848
0.127567
0.125576
0.123883
0.122490
0.121403
0.120624
0.120156
0.120000
0.120156
0.120624
0.121403
0.122490
0.123883
0.125576
0.127567
0.129848
0.132415
0.135261
0.138378
0.141760
0.145398
0.149285
0.153412
0.157771
0.162353
0.167151
0.172156
0.177359
0.182753
0.188330
0.194081
0.200000
0.206079
0.212311
0.218688
0.225206
0.231856
0.238634
0.245533
0.252548
0.259674
0.266905
0.274236
0.281664
0.289183
0.296790
0.304480
0.312250
0.320096
0.328015
0.336004
0.344059
0.352178
0.360357
0.368595
0.376888
0.385235
0.196816
0.194151
0.379828
0.371402
0.363028
0.354707
0.346443
0.338238
0.330094
0.322015
0.314004
0.306063
0.298197
0.290408
0.282701
0.275079
0.267547
0.260109
0.252769
0.245533
0.238406
0.231393
0.224500
0.217732
0.211096
0.204599
0.198246
0.192046
0.186005
0.180132
0.174433
0.168917
0.163593
0.158469
0.153553
0.148855
0.144384
0.140147
0.136155
0.132415
0.128938
0.125730
0.122800
0.120156
0.117805
0.115753
0.114006
0.112570
0.111448
0.110644
0.110161
0.110000
0.110161
0.110644
0.111448
0.112570
0.114006
0.115753
0.117805
0.120156
0.122800
0.125730
0.128938
0.132415
0.136155
0.140147
0.144384
0.148855
0.153553
0.158469
0.163593
0.168917
0.174433
0.180132
0.186005
0.192046
0.198246
0.204599
0.211096
0.217732
0.224500
0.231393
0.238406
0.245533
0.252769
0.260109
0.267547
0.275079
0.282701
0.290408
0.298197
0.306063
0.314004
0.322015
0.330094
0.338238
0.346443
0.354707
0.363028
0.371402
0.379828
0.194151
0.191548
0.374543
0.366039
0.357584
0.349181
0.340833
0.332541
0.324309
0.316140
0.308035
0.300000
0.292037
0.284149
0.276340
0.268615
0.260977
0.253431
0.245982
0.238634
0.231393
0.224264
0.217253
0.210366
0.203609
0.196989
0.190512
0.184187
0.178021
0.172022
0.166197
0.160555
0.155106
0.149857
0.144819
0.140000
0.135410
0.131059
0.126956
0.123110
0.119531
0.116228
0.113209
0.110483
0.108058
0.105941
0.104138
0.102655
0.101496
0.100666
0.100167
0.100000
0.100167
0.100666
0.101496
0.102655
0.104138
0.105941
0.108058
0.110483
0.113209
0.116228
0.119531
0.123110
0.126956
0.131059
0.135410
0.140000
0.144819
0.149857
0.155106
0.160555
0.166197
0.172022
0.178021
0.184187
0.190512
0.196989
0.203609
0.210366
0.217253
0.224264
0.231393
0.238634
0.245982
0.253431
0.260977
0.268615
0.276340
0.284149
0.292037
0.300000
0.308035
0.316140
0.324309
0.332541
0.340833
0.349181
0.357584
0.366039
0.374543
0.191548
0.189007
0.369386
0.360803
0.352268
0.343783
0.335350
0.326972
0.318652
0.310392
0.302195
0.294065
0.286004
0.278017
0.270106
0.262277
0.254533
0.246878
0.239318
0.231856
0.224500
0.217253
0.210122
0.203113
0.196232
0.189487
0.182884
0.176431
0.170135
0.164005
0.158050
0.152278
0.146699
0.141321
0.136155
0.131210
0.126497
0.122025
0.117805
0.113847
0.110161
0.106757
0.103645
0.100832
0.098329
0.096142
0.094279
0.092746
0.091548
0.090689
0.090172
0.090000
0.090172
0.090689
0.091548
0.092746
0.094279
0.096142
0.098329
0.100832
0.103645
0.106757
0.110161
0.113847
0.117805
0.122025
0.126497
0.131210
0.136155
0.141321
0.146699
0.152278
0.158050
0.164005
0.170135
0.176431
0.182884
0.189487
0.196232
0.203113
0.210122
0.217253
0.224500
0.231856
0.239318
0.246878
0.254533
0.262277
0.270106
0.278017
0.286004
0.294065