<VTKFile type="StructuredGrid" version="0.1" byte_order="LittleEndian">
<StructuredGrid WholeExtent="1 101 1 101 0 0">
<Piece Extent="1 101 1 51 0 0">
<PointData></PointData>
<CellData></CellData>
<Points>
<DataArray NumberOfComponents="3" format="ascii" type ="Float32" Name="mesh">
0.000000 0.000000 0.0
0.010000 0.000000 0.0
0.020000 0.000000 0.0
0.030000 0.000000 0.0
0.040000 0.000000 0.0
0.050000 0.000000 0.0
0.060000 0.000000 0.0
0.070000 0.000000 0.0
0.080000 0.000000 0.0
0.090000 0.000000 0.0
0.100000 0.000000 0.0
0.110000 0.000000 0.0
0.120000 0.000000 0.0
0.130000 0.000000 0.0
0.140000 0.000000 0.0
0.150000 0.000000 0.0
0.160000 0.000000 0.0
0.170000 0.000000 0.0
0.180000 0.000000 0.0
0.190000 0.000000 0.0
0.200000 0.000000 0.0
0.210000 0.000000 0.0
0.220000 0.000000 0.0
0.230000 0.000000 0.0
0.240000 0.000000 0.0
0.250000 0.000000 0.0
0.260000 0.000000 0.0
0.270000 0.000000 0.0
0.280000 0.000000 0.0
0.290000 0.000000 0.0
0.300000 0.000000 0.0
0.310000 0.000000 0.0
0.320000 0.000000 0.0
0.330000 0.000000 0.0
0.340000 0.000000 0.0
0.350000 0.000000 0.0
0.360000 0.000000 0.0
0.370000 0.000000 0.0
0.380000 0.000000 0.0
0.390000 0.000000 0.0
0.400000 0.000000 0.0
0.410000 0.000000 0.0
0.420000 0.000000 0.0
0.430000 0.000000 0.0
0.440000 0.000000 0.0
0.450000 0.000000 0.0
0.460000 0.000000 0.0
0.470000 0.000000 0.0
0.480000 0.000000 0.0
0.490000 0.000000 0.0
0.500000 0.000000 0.0
0.510000 0.000000 0.0
0.520000 0.000000 0.0
0.530000 0.000000 0.0
0.540000 0.000000 0.0
0.550000 0.000000 0.0
0.560000 0.000000 0.0
0.570000 0.000000 0.0
0.580000 0.000000 0.0
0.590000 0.000000 0.0
0.600000 0.000000 0.0
0.610000 0.000000 0.0
0.620000 0.000000 0.0
0.630000 0.000000 0.0
0.640000 0.000000 0.0
0.650000 0.000000 0.0
0.660000 0.000000 0.0
0.670000 0.000000 0.0
0.680000 0.000000 0.0
0.690000 0.000000 0.0
0.700000 0.000000 0.0
0.710000 0.000000 0.0
0.720000 0.000000 0.0
0.730000 0.000000 0.0
0.740000 0.000000 0.0
0.750000 0.000000 0.0
0.760000 0.000000 0.0
0.770000 0.000000 0.0
0.780000 0.000000 0.0
0.790000 0.000000 0.0
0.800000 0.000000 0.0
0.810000 0.000000 0.0
0.820000 0.000000 0.0
0.830000 0.000000 0.0
0.840000 0.000000 0.0
0.850000 0.000000 0.0
0.860000 0.000000 0.0
0.870000 0.000000 0.0
0.880000 0.000000 0.0
0.890000 0.000000 0.0
0.900000 0.000000 0.0
0.910000 0.000000 0.0
0.920000 0.000000 0.0
0.930000 0.000000 0.0
0.940000 0.000000 0.0
0.950000 0.000000 0.0
0.960000 0.000000 0.0
0.970000 0.000000 0.0
0.980000 0.000000 0.0
0.990000 0.000000 0.0
1.000000 0.000000 0.0
0.000000 0.010000 0.0
0.010000 0.010000 0.0
0.020000 0.010000 0.0
0.030000 0.010000 0.0
0.040000 0.010000 0.0
0.050000 0.010000 0.0
0.060000 0.010000 0.0
0.070000 0.010000 0.0
0.080000 0.010000 0.0
0.090000 0.010000 0.0
0.100000 0.010000 0.0
0.110000 0.010000 0.0
0.120000 0.010000 0.0
0.130000 0.010000 0.0
0.140000 0.010000 0.0
0.150000 0.010000 0.0
0.160000 0.010000 0.0
0.170000 0.010000 0.0
0.180000 0.010000 0.0
0.190000 0.010000 0.0
0.200000 0.010000 0.0
0.210000 0.010000 0.0
0.220000 0.010000 0.0
0.230000 0.010000 0.0
0.240000 0.010000 0.0
0.250000 0.010000 0.0
0.260000 0.010000 0.0
0.270000 0.010000 0.0
0.280000 0.010000 0.0
0.290000 0.010000 0.0
0.300000 0.010000 0.0
0.310000 0.010000 0.0
0.320000 0.010000 0.0
0.330000 0.010000 0.0
0.340000 0.010000 0.0
0.350000 0.010000 0.0
0.360000 0.010000 0.0
0.370000 0.010000 0.0
0.380000 0.010000 0.0
0.390000 0.010000 0.0
0.400000 0.010000 0.0
0.410000 0.010000 0.0
0.420000 0.010000 0.0
0.430000 0.010000 0.0
0.440000 0.010000 0.0
0.450000 0.010000 0.0
0.460000 0.010000 0.0
0.470000 0.010000 0.0
0.480000 0.010000 0.0
0.490000 0.010000 0.0
0.500000 0.010000 0.0
0.510000 0.010000 0.0
0.520000 0.010000 0.0
0.530000 0.010000 0.0
0.540000 0.010000 0.0
0.550000 0.010000 0.0
0.560000 0.010000 0.0
0.570000 0.010000 0.0
0.580000 0.010000 0.0
0.590000 0.010000 0.0
0.600000 0.010000 0.0
0.610000 0.010000 0.0
0.620000 0.010000 0.0
0.630000 0.010000 0.0
0.640000 0.010000 0.0
0.650000 0.010000 0.0
0.660000 0.010000 0.0
0.670000 0.010000 0.0
0.680000 0.010000 0.0
0.690000 0.010000 0.0
0.700000 0.010000 0.0
0.710000 0.010000 0.0
0.720000 0.010000 0.0
0.730000 0.010000 0.0
0.740000 0.010000 0.0
0.750000 0.010000 0.0
0.760000 0.010000 0.0
0.770000 0.010000 0.0
0.780000 0.010000 0.0
0.790000 0.010000 0.0
0.800000 0.010000 0.0
0.810000 0.010000 0.0
0.820000 0.010000 0.0
0.830000 0.010000 0.0
0.840000 0.010000 0.0
0.850000 0.010000 0.0
0.860000 0.010000 0.0
0.870000 0.010000 0.0
0.880000 0.010000 0.0
0.890000 0.010000 0.0
0.900000 0.010000 0.0
0.910000 0.010000 0.0
0.920000 0.010000 0.0
0.930000 0.010000 0.0
0.940000 0.010000 0.0
0.950000 0.010000 0.0
0.960000 0.010000 0.0
0.970000 0.010000 0.0
0.980000 0.010000 0.0
0.990000 0.010000 0.0
1.000000 0.010000 0.0
0.000000 0.020000 0.0
0.010000 0.020000 0.0
0.020000 0.020000 0.0
0.030000 0.020000 0.0
0.040000 0.020000 0.0
0.050000 0.020000 0.0
0.060000 0.020000 0.0
0.070000 0.020000 0.0
0.080000 0.020000 0.0
0.090000 0.020000 0.0
0.100000 0.020000 0.0
0.110000 0.020000 0.0
0.120000 0.020000 0.0
0.130000 0.020000 0.0
0.140000 0.020000 0.0
0.150000 0.020000 0.0
0.160000 0.020000 0.0
0.170000 0.020000 0.0
0.180000 0.020000 0.0
0.190000 0.020000 0.0
0.200000 0.020000 0.0
0.210000 0.020000 0.0
0.220000 0.020000 0.0
0.230000 0.020000 0.0
0.240000 0.020000 0.0
0.250000 0.020000 0.0
0.260000 0.020000 0.0
0.270000 0.020000 0.0
0.280000 0.020000 0.0
0.290000 0.020000 0.0
0.300000 0.020000 0.0
0.310000 0.020000 0.0
0.320000 0.020000 0.0
0.330000 0.020000 0.0
0.340000 0.020000 0.0
0.350000 0.020000 0.0
0.360000 0.020000 0.0
0.370000 0.020000 0.0
0.380000 0.020000 0.0
0.390000 0.020000 0.0
0.400000 0.020000 0.0
0.410000 0.020000 0.0
0.420000 0.020000 0.0
0.430000 0.020000 0.0
0.440000 0.020000 0.0
0.450000 0.020000 0.0
0.460000 0.020000 0.0
0.470000 0.020000 0.0
0.480000 0.020000 0.0
0.490000 0.020000 0.0
0.500000 0.020000 0.0
0.510000 0.020000 0.0
0.520000 0.020000 0.0
0.530000 0.020000 0.0
0.540000 0.020000 0.0
0.550000 0.020000 0.0
0.560000 0.020000 0.0
0.570000 0.020000 0.0
0.580000 0.020000 0.0
0.590000 0.020000 0.0
0.600000 0.020000 0.0
0.610000 0.020000 0.0
0.620000 0.020000 0.0
0.630000 0.020000 0.0
0.640000 0.020000 0.0
0.650000 0.020000 0.0
0.660000 0.020000 0.0
0.670000 0.020000 0.0
0.680000 0.020000 0.0
0.690000 0.020000 0.0
0.700000 0.020000 0.0
0.710000 0.020000 0.0
0.720000 0.020000 0.0
0.730000 0.020000 0.0
0.740000 0.020000 0.0
0.750000 0.020000 0.0
0.760000 0.020000 0.0
0.770000 0.020000 0.0
0.780000 0.020000 0.0
0.790000 0.020000 0.0
0.800000 0.020000 0.0
0.810000 0.020000 0.0
0.820000 0.020000 0.0
0.830000 0.020000 0.0
0.840000 0.020000 0.0
0.850000 0.020000 0.0
0.860000 0.020000 0.0
0.870000 0.020000 0.0
0.880000 0.020000 0.0
0.890000 0.020000 0.0
0.900000 0.020000 0.0
0.910000 0.020000 0.0
0.920000 0.020000 0.0
0.930000 0.020000 0.0
0.940000 0.020000 0.0
0.950000 0.020000 0.0
0.960000 0.020000 0.0
0.970000 0.020000 0.0
0.980000 0.020000 0.0
0.990000 0.020000 0.0
1.000000 0.020000 0.0
0.000000 0.030000 0.0
0.010000 0.030000 0.0
0.020000 0.030000 0.0
0.030000 0.030000 0.0
0.040000 0.030000 0.0
0.050000 0.030000 0.0
0.060000 0.030000 0.0
0.070000 0.030000 0.0
0.080000 0.030000 0.0
0.090000 0.030000 0.0
0.100000 0.030000 0.0
0.110000 0.030000 0.0
0.120000 0.030000 0.0
0.130000 0.030000 0.0
0.140000 0.030000 0.0
0.150000 0.030000 0.0
0.160000 0.030000 0.0
0.170000 0.030000 0.0
0.180000 0.030000 0.0
0.190000 0.030000 0.0
0.200000 0.030000 0.0
0.210000 0.030000 0.0
0.220000 0.030000 0.0
0.230000 0.030000 0.0
0.240000 0.030000 0.0
0.250000 0.030000 0.0
0.260000 0.030000 0.0
0.270000 0.030000 0.0
0.280000 0.030000 0.0
0.290000 0.030000 0.0
0.300000 0.030000 0.0
0.310000 0.030000 0.0
0.320000 0.030000 0.0
0.330000 0.030000 0.0
0.340000 0.030000 0.0
0.350000 0.030000 0.0
0.360000 0.030000 0.0
0.370000 0.030000 0.0
0.380000 0.030000 0.0
0.390000 0.030000 0.0
0.400000 0.030000 0.0
0.410000 0.030000 0.0
0.420000 0.030000 0.0
0.430000 0.030000 0.0
0.440000 0.030000 0.0
0.450000 0.030000 0.0
0.460000 0.030000 0.0
0.470000 0.030000 0.0
0.480000 0.030000 0.0
0.490000 0.030000 0.0
0.500000 0.030000 0.0
0.510000 0.030000 0.0
0.520000 0.030000 0.0
0.530000 0.030000 0.0
0.540000 0.030000 0.0
0.550000 0.030000 0.0
0.560000 0.030000 0.0
0.570000 0.030000 0.0
0.580000 0.030000 0.0
0.590000 0.030000 0.0
0.600000 0.030000 0.0
0.610000 0.030000 0.0
0.620000 0.030000 0.0
0.630000 0.030000 0.0
0.640000 0.030000 0.0
0.650000 0.030000 0.0
0.660000 0.030000 0.0
0.670000 0.030000 0.0
0.680000 0.030000 0.0
0.690000 0.030000 0.0
0.700000 0.030000 0.0
0.710000 0.030000 0.0
0.720000 0.030000 0.0
0.730000 0.030000 0.0
0.740000 0.030000 0.0
0.750000 0.030000 0.0
0.760000 0.030000 0.0
0.770000 0.030000 0.0
0.780000 0.030000 0.0
0.790000 0.030000 0.0
0.800000 0.030000 0.0
0.810000 0.030000 0.0
0.820000 0.030000 0.0
0.830000 0.030000 0.0
0.840000 0.030000 0.0
0.850000 0.030000 0.0
0.860000 0.030000 0.0
0.870000 0.030000 0.0
0.880000 0.030000 0.0
0.890000 0.030000 0.0
0.900000 0.030000 0.0
0.910000 0.030000 0.0
0.920000 0.030000 0.0
0.930000 0.030000 0.0
0.940000 0.030000 0.0
0.950000 0.030000 0.0
0.960000 0.030000 0.0
0.970000 0.030000 0.0
0.980000 0.030000 0.0
0.990000 0.030000 0.0
1.000000 0.030000 0.0
0.000000 0.040000 0.0
0.010000 0.040000 0.0
0.020000 0.040000 0.0
0.030000 0.040000 0.0
0.040000 0.040000 0.0
0.050000 0.040000 0.0
0.060000 0.040000 0.0
0.070000 0.040000 0.0
0.080000 0.040000 0.0
0.090000 0.040000 0.0
0.100000 0.040000 0.0
0.110000 0.040000 0.0
0.120000 0.040000 0.0
0.130000 0.040000 0.0
0.140000 0.040000 0.0
0.150000 0.040000 0.0
0.160000 0.040000 0.0
0.170000 0.040000 0.0
0.180000 0.040000 0.0
0.190000 0.040000 0.0
0.200000 0.040000 0.0
0.210000 0.040000 0.0
0.220000 0.040000 0.0
0.230000 0.040000 0.0
0.240000 0.040000 0.0
0.250000 0.040000 0.0
0.260000 0.040000 0.0
0.270000 0.040000 0.0
0.280000 0.040000 0.0
0.290000 0.040000 0.0
0.300000 0.040000 0.0
0.310000 0.040000 0.0
0.320000 0.040000 0.0
0.330000 0.040000 0.0
0.340000 0.040000 0.0
0.350000 0.040000 0.0
0.360000 0.040000 0.0
[...]
<PointData>
<DataArray NumberOfComponents="1" format="ascii" type ="Float32" Name="phi">
0.322504
0.637936
0.630925
0.623976
0.617090
0.610269
0.603515
0.596829
0.590213
0.583668
0.577197
0.570802
0.564483
0.558244
0.552087
0.546012
0.540023
0.534121
0.528309
0.522588
0.516961
0.511430
0.505997
0.500665
0.495436
0.490313
0.485296
0.480390
0.475596
0.470918
0.466356
0.461914
0.457594
0.453398
0.449330
0.445390
0.441583
0.437909
0.434372
0.430974
0.427716
0.424602
0.421633
0.418811
0.416139
0.413618
0.411250
0.409037
0.406981
0.405083
0.403345
0.401769
0.400354
0.399104
0.398018
0.397097
0.396343
0.395756
0.395336
0.395084
0.395000
0.395084
0.395336
0.395756
0.396343
0.397097
0.398018
0.399104
0.400354
0.401769
0.403345
0.405083
0.406981
0.409037
0.411250
0.413618
0.416139
0.418811
0.421633
0.424602
0.427716
0.430974
0.434372
0.437909
0.441583
0.445390
0.449330
0.453398
0.457594
0.461914
0.466356
0.470918
0.475596
0.480390
0.485296
0.490313
0.495436
0.500665
0.505997
0.511430
0.258480
0.320743
0.634386
0.627345
0.620366
0.613449
0.606598
0.599812
0.593095
0.586448
0.579872
0.573369
0.566942
0.560592
0.554321
0.548131
0.542024
0.536003
0.530068
0.524224
0.518471
0.512811
0.507248
0.501783
0.496419
0.491158
0.486003
0.480955
0.476018
0.471193
0.466483
0.461891
0.457419
0.453070
0.448845
0.444748
0.440781
0.436946
0.433246
0.429682
0.426259
0.422977
0.419839
0.416847
0.414003
0.411310
0.408769
0.406383
0.404152
0.402080
0.400167
0.398415
0.396825
0.395399
0.394138
0.393043
0.392115
0.391354
0.390762
0.390339
0.390085
0.390000
0.390085
0.390339
0.390762
0.391354
0.392115
0.393043
0.394138
0.395399
0.396825
0.398415
0.400167
0.402080
0.404152
0.406383
0.408769
0.411310
0.414003
0.416847
0.419839
0.422977
0.426259
0.429682
0.433246
0.436946
0.440781
0.444748
0.448845
0.453070
0.457419
0.461891
0.466483
0.471193
0.476018
0.480955
0.486003
0.491158
0.496419
0.501783
0.507248
0.256406
0.317253
0.627345
0.620244
0.613204
0.606226
0.599312
0.592465
0.585684
0.578974
0.572334
0.565768
0.559276
0.552861
0.546525
0.540270
0.534098
0.528011
0.522011
0.516101
0.510282
0.504557
0.498928
0.493397
0.487968
0.482642
0.477422
0.472309
0.467308
0.462420
0.457647
0.452993
0.448460
0.444050
0.439766
0.435610
0.431585
0.427694
0.423939
0.420322
0.416847
0.413514
0.410328
0.407289
0.404401
0.401664
0.399083
0.396657
0.394390
0.392284
0.390339
0.388558
0.386941
0.385491
0.384209
0.383095
0.382151
0.381378
0.380775
0.380345
0.380086
0.380000
0.380086
0.380345
0.380775
0.381378
0.382151
0.383095
0.384209
0.385491
0.386941
0.388558
0.390339
0.392284
0.394390
0.396657
0.399083
0.401664
0.404401
0.407289
0.410328
0.413514
0.416847
0.420322
0.423939
0.427694
0.431585
0.435610
0.439766
0.444050
0.448460
0.452993
0.457647
0.462420
0.467308
0.472309
0.477422
0.482642
0.487968
0.493397
0.498928
0.252278
0.313793
0.620366
0.613204
0.606102
0.599062
0.592086
0.585175
0.578332
0.571557
0.564853
0.558222
0.551665
0.545185
0.538783
0.532462
0.526223
0.520069
0.514003
0.508025
0.502140
0.496348
0.490652
0.485055
0.479559
0.474166
0.468880
0.463702
0.458635
0.453682
0.448845
0.444127
0.439531
0.435059
0.430714
0.426498
0.422415
0.418466
0.414654
0.410983
0.407454
0.404070
0.400833
0.397746
0.394811
0.392030
0.389406
0.386941
0.384637
0.382495
0.380517
0.378705
0.377062
0.375587
0.374282
0.373149
0.372189
0.371402
0.370789
0.370351
0.370088
0.370000
0.370088
0.370351
0.370789
0.371402
0.372189
0.373149
0.374282
0.375587
0.377062
0.378705
0.380517
0.382495
0.384637
0.386941
0.389406
0.392030
0.394811
0.397746
0.400833
0.404070
0.407454
0.410983
0.414654
0.418466
0.422415
0.426498
0.430714
0.435059
0.439531
0.444127
0.448845
0.453682
0.458635
0.463702
0.468880
0.474166
0.479559
0.485055
0.490652
0.248174
0.310366
0.613449
0.606226
0.599062
0.591960
0.584920
0.577946
0.571038
0.564199
0.557430
0.550733
0.544110
0.537564
0.531095
0.524707
0.518401
0.512180
0.506045
0.500000
0.494046
0.488186
0.482422
0.476757
0.471193
0.465733
0.460379
0.455134
0.450000
0.444981
0.440078
0.435295
0.430635
0.426099
0.421691
0.417414
0.413270
0.409262
0.405392
0.401664
0.398080
0.394643
0.391354
0.388218
0.385235
0.382409
0.379741
0.377235
0.374891
0.372713
0.370701
0.368859
0.367186
0.365685
0.364358
0.363205
0.362228
0.361427
0.360803
0.360357
0.360089
0.360000
0.360089
0.360357
0.360803
0.361427
0.362228
0.363205
0.364358
0.365685
0.367186
0.368859
0.370701
0.372713
0.374891
0.377235
0.379741
0.382409
0.385235
0.388218
0.391354
0.394643
0.398080
0.401664
0.405392
0.409262
0.413270
0.417414
0.421691
0.426099
0.430635
0.435295
0.440078
0.444981
0.450000
0.455134
0.460379
0.465733
0.471193
0.476757
0.482422
0.244093
0.306971
0.606598
0.599312
0.592086
0.584920
0.577817
0.570779
0.563806
0.556902
0.550067
0.543303
0.536614
0.530000
0.523464
0.517008
0.510634
0.504344
0.498140
0.492026
0.486003
0.480074
0.474240
0.468506
0.462873
0.457343
0.451920
0.446607
0.441405
0.436318
0.431348
0.426498
0.421772
0.417171
0.412699
0.408358
0.404152
0.400083
0.396154
0.392368
0.388727
0.385235
0.381893
0.378705
0.375674
0.372800
0.370088
0.367539
0.365155
0.362939
0.360892
0.359017
0.357315
0.355788
0.354437
0.353263
0.352268
0.351453
0.350818
0.350364
0.350091
0.350000
0.350091
0.350364
0.350818
0.351453
0.352268
0.353263
0.354437
0.355788
0.357315
0.359017
0.360892
0.362939
0.365155
0.367539
0.370088
0.372800
0.375674
0.378705
0.381893
0.385235
0.388727
0.392368
0.396154
0.400083
0.404152
0.408358
0.412699
0.417171
0.421772
0.426498
0.431348
0.436318
0.441405
0.446607
0.451920
0.457343
0.462873
0.468506
0.474240
0.240037
0.303609
0.599812
0.592465
0.585175
0.577946
0.570779
0.563675
0.556637
0.549667
0.542765
0.535935
0.529178
0.522496
0.515891
0.509366
0.502922
0.496563
0.490290
0.484105
0.478012
0.472012
0.466108
0.460303
0.454599
0.448999
0.443506
0.438122
0.432851
0.427694
0.422656
0.417738
0.412944
0.408276
0.403738
0.399333
0.395063
0.390931
0.386941
0.383095
0.379396
0.375847
0.372451
0.369210
0.366127
0.363205
0.360446
0.357853
0.355428
0.353173
0.351090
0.349181
0.347449
0.345894
0.344518
0.343323
0.342310
0.341479
0.340833
0.340370
0.340093
0.340000
0.340093
0.340370
0.340833
0.341479
0.342310
0.343323
0.344518
0.345894
0.347449
0.349181
0.351090
0.353173
0.355428
0.357853
0.360446
0.363205
0.366127
0.369210
0.372451
0.375847
0.379396
0.383095
0.386941
0.390931
0.395063
0.399333
0.403738
0.408276
0.412944
0.417738
0.422656
0.427694
0.432851
0.438122
0.443506
0.448999
0.454599
0.460303
0.466108
0.236006
0.300281
0.593095
0.585684
0.578332
0.571038
0.563806
0.556637
0.549533
0.542496
0.535527
0.528629
0.521803
0.515052
0.508378
0.501783
0.495270
0.488840
0.482495
0.476240
0.470075
0.464003
0.458027
0.452150
0.446375
0.440703
0.435138
0.429682
0.424340
0.419112
0.414003
0.409016
0.404152
0.399416
0.394811
0.390339
0.386003
0.381808
0.377754
0.373847
0.370088
0.366480
0.363028
0.359732
0.356597
0.353624
0.350818
0.348179
0.345711
0.343415
0.341295
0.339351
0.337587
0.336004
0.334603
0.333385
0.332353
0.331507
0.330848
0.330377
0.330094
0.330000
0.330094
0.330377
0.330848
0.331507
0.332353
0.333385
0.334603
0.336004
0.337587
0.339351
0.341295
0.343415
0.345711
0.348179
0.350818
0.353624
0.356597
0.359732
0.363028
0.366480
0.370088
0.373847
0.377754
0.381808
0.386003
0.390339
0.394811
0.399416
0.404152
0.409016
0.414003
0.419112
0.424340
0.429682
0.435138
0.440703
0.446375
0.452150
0.458027
0.232002
0.296989
0.586448
0.578974
0.571557
0.564199
0.556902
0.549667
0.542496
0.535391
0.528354
0.521388
0.514493
0.507672
0.500928
0.494262
0.487677
0.481175
0.474759
0.468431
0.462193
0.456049
0.450000
0.444050
0.438201
0.432456
0.426817
0.421289
0.415873
0.410574
0.405392
0.400333
0.395399
0.390593
0.385918
0.381378
0.376975
0.372713
0.368595
0.364624
0.360803
0.357136
0.353624
0.350273
0.347083
0.344059
0.341202
0.338516
0.336004
0.333667
0.331507
0.329528
0.327731
0.326118
0.324690
0.323450
0.322398
0.321536
0.320865
0.320384
0.320096
0.320000
0.320096
0.320384
0.320865
0.321536
0.322398
0.323450
0.324690
0.326118
0.327731
0.329528
0.331507
0.333667
0.336004
0.338516
0.341202
0.344059
0.347083
0.350273
0.353624
0.357136
0.360803
0.364624
0.368595
0.372713
0.376975
0.381378
0.385918
0.390593
0.395399
0.400333
0.405392
0.410574
0.415873
0.421289
0.426817
0.432456
0.438201
0.444050
0.450000
0.228024
0.293732
0.579872
0.572334
0.564853
0.557430
0.550067
0.542765
0.535527
0.528354
0.521249
0.514213
0.507248
0.500357
0.493542
0.486804
0.480147
0.473573
0.467083
0.460681
0.454370
0.448151
0.442028
0.436003
0.430079
0.424260
0.418547
0.412944
0.407454
0.402080
0.396825
0.391692
0.386686
0.381808
0.377062
0.372451
0.367979
0.363649
0.359464
0.355428
0.351543
0.347814
0.344243
0.340833
0.337587
0.334509
0.331601
0.328867
0.326308
0.323927
0.321728
0.319711
0.317880
0.316236
0.314782
0.313517
0.312445
0.311566
0.310882
0.310392
0.310098
0.310000
0.310098
0.310392
0.310882
0.311566
0.312445
0.313517
0.314782
0.316236
0.317880
0.319711
0.321728
0.323927
0.326308
0.328867
0.331601
0.334509
0.337587
0.340833
0.344243
0.347814
0.351543
0.355428
0.359464
0.363649
0.367979
0.372451
0.377062
0.381808
0.386686
0.391692
0.396825
0.402080
0.407454
0.412944
0.418547
0.424260
0.430079
0.436003
0.442028
0.224076
0.290512
0.573369
0.565768
0.558222
0.550733
0.543303
0.535935
0.528629
0.521388
0.514213
0.507107
0.500071
0.493109
0.486222
0.479412
0.472681
0.466033
0.459469
0.452993
0.446607
0.440312
0.434114
0.428013
0.422013
0.416117
0.410328
0.404649
0.399083
0.393633
0.388303
0.383095
0.378014
0.373062
0.368243
0.363560
0.359017
0.354617
0.350364
0.346260
0.342310
0.338516
0.334883
0.331413
0.328110
0.324976
0.322015
0.319230
0.316624
0.314198
0.311957
0.309902
0.308035
0.306360
0.304876
0.303587
0.302494
0.301597
0.300899
0.300400
0.300100
0.300000
0.300100
0.300400
0.300899
0.301597
0.302494
0.303587
0.304876
0.306360
0.308035
0.309902
0.311957
0.314198
0.316624
0.319230
0.322015
0.324976
0.328110
0.331413
0.334883
0.338516
0.342310
0.346260
0.350364
0.354617
0.359017
0.363560
0.368243
0.373062
0.378014
0.383095
0.388303
0.393633
0.399083
0.404649
0.410328
0.416117
0.422013
0.428013
0.434114
0.220156
0.287331
0.566942
0.559276
0.551665
0.544110
0.536614
0.529178
0.521803
0.514493
0.507248
0.500071
0.492965
0.485930
0.478970
0.472086
0.465282
0.458559
0.451920
0.445368
0.438905
0.432535
0.426259
0.420081
0.414003
0.408030
0.402163
0.396406
0.390762
0.385235
0.379828
0.374543
0.369386
0.364358
0.359464
0.354707
0.350091
0.345619
0.341295
0.337122
0.333104
0.329245
0.325547
0.322015
0.318652
0.315461
0.312445
0.309608
0.306952
0.304480
0.302195
0.300100
0.298197
0.296488
0.294975
0.293660
0.292544
0.291630
0.290918
0.290408
0.290102
0.290000
0.290102
0.290408
0.290918
0.291630
0.292544
0.293660
0.294975
0.296488
0.298197
0.300100
0.302195
0.304480
0.306952
0.309608
0.312445
0.315461
0.318652
0.322015
0.325547
0.329245
0.333104
0.337122
0.341295
0.345619
0.350091
0.354707
0.359464
0.364358
0.369386
0.374543
0.379828
0.385235
0.390762
0.396406
0.402163
0.408030
0.414003
0.420081
0.426259
0.216267
0.284187
0.560592
0.552861
0.545185
0.537564
0.530000
0.522496
0.515052
0.507672
0.500357
0.493109
0.485930
0.478823
0.471789
0.464831
0.457951
0.451153
0.444438
0.437809
0.431269
0.424820
0.418466
0.412209
0.406053
0.400000
0.394054
0.388218
0.382495
0.376888
0.371402
0.366039
0.360803
0.355698
0.350727
0.345894
0.341202
0.336656
0.332259
0.328015
0.323927
0.320000
0.316236
0.312640
0.309215
0.305964
0.302892
0.300000
0.297293
0.294773
0.292443
0.290306
0.288365
0.286621
0.285077
0.283735
0.282597
0.281664
0.280937
0.280416
0.280104
0.280000
0.280104
0.280416
0.280937
0.281664
0.282597
0.283735
0.285077
0.286621
0.288365
0.290306
0.292443
0.294773
0.297293
0.300000
0.302892
0.305964
0.309215
0.312640
0.316236
0.320000
0.323927
0.328015
0.332259
0.336656
0.341202
0.345894
0.350727
0.355698
0.360803
0.366039
0.371402
0.376888
0.382495
0.388218
0.394054
0.400000
0.406053
0.412209
0.418466
0.212410
0.281084
0.554321
0.546525
0.538783
0.531095
0.523464
0.515891
0.508378
0.500928
0.493542
0.486222
0.478970
0.471789
0.464680
0.457647
0.450692
0.443817
0.437024
0.430317
0.423699
0.417171
0.410737
0.404401
0.398164
0.392030
0.386003
0.380086
0.374282
0.368595
0.363028
0.357584
0.352268
0.347083
0.342033
0.337122
0.332353
0.327731
0.323259
0.318941
0.314782
0.310784
0.306952
0.303289
0.299800
0.296488
0.293356
0.290408
0.287647
0.285077
0.282701
0.280521
0.278539
0.276760
0.275184
0.273814
0.272652
0.271699
0.270956
0.270425
0.270106
0.270000
0.270106
0.270425
0.270956
0.271699
0.272652
0.273814
0.275184
0.276760
0.278539
0.280521
0.282701
0.285077
0.287647
0.290408
0.293356
0.296488
0.299800
0.303289
0.306952
0.310784
0.314782
0.318941
0.323259
0.327731
0.332353
0.337122
0.342033
0.347083
0.352268
0.357584
0.363028
0.368595
0.374282
0.380086
0.386003
0.392030
0.398164
0.404401
0.410737
0.208585
0.278021
0.548131
0.540270
0.532462
0.524707
0.517008
0.509366
0.501783
0.494262
0.486804
0.479412
0.472086
0.464831
0.457647
0.450538
0.443506
0.436553
0.429682
0.422896
0.416198
0.409590
0.403075
0.396657
0.390339
0.384123
0.378014
0.372014
0.366127
0.360357
0.354707
0.349181
0.343783
0.338516
0.333385
0.328394
0.323546
0.318845
0.314296
0.309902
0.305668
0.301597
0.297695
0.293964
0.290408
0.287032
0.283839
0.280833
0.278017
0.275395
0.272969
0.270744
0.268722
0.266905
0.265296
0.263897
0.262709
0.261736
0.260977
0.260435
0.260109
0.260000
0.260109
0.260435
0.260977
0.261736
0.262709
0.263897
0.265296
0.266905
0.268722
0.270744
0.272969
0.275395
0.278017
0.280833
0.283839
0.287032
0.290408
0.293964
0.297695
0.301597
0.305668
0.309902
0.314296
0.318845
0.323546
0.328394
0.333385
0.338516
0.343783
0.349181
0.354707
0.360357
0.366127
0.372014
0.378014
0.384123
0.390339
0.396657
0.403075
0.204795
0.275000
0.542024
0.534098
0.526223
0.518401
0.510634
0.502922
0.495270
0.487677
0.480147
0.472681
0.465282
0.457951
0.450692
0.443506
0.436396
0.429365
0.422415
0.415549
0.408769
0.402080
0.395483
0.388982
0.382580
0.376281
0.370088
0.364004
0.358032
0.352178
0.346443
0.340833
0.335350
0.330000
0.324786
0.319711
0.314782
0.310000
0.305371
0.300899
0.296588
0.292443
0.288467
0.284665
0.281041
0.277598
0.274342
0.271275
0.268402
0.265725
0.263249
0.260977
0.258912
0.257056
0.255412
0.253982
0.252769
0.251774
0.250999
0.250444
0.250111
0.250000
0.250111
0.250444
0.250999
0.251774
0.252769
0.253982
0.255412
0.257056
0.258912
0.260977
0.263249
0.265725
0.268402
0.271275
0.274342
0.277598
0.281041
0.284665
0.288467
0.292443
0.296588
0.300899
0.305371
0.310000
0.314782
0.319711
0.324786
0.330000
0.335350
0.340833
0.346443
0.352178
0.358032
0.364004
0.370088
0.376281
0.382580
0.388982
0.395483
0.201040
0.272022
0.536003
0.528011
0.520069
0.512180
0.504344
0.496563
0.488840
0.481175
0.473573
0.466033
0.458559
0.451153
0.443817
0.436553
0.429365
0.422254
0.415224
0.408276
0.401415
0.394643
0.387963
0.381378
0.374891
0.368507
0.362228
0.356058
0.350000
0.344059
0.338238
0.332541
0.326972
0.321536
0.316236
0.311077
0.306063
0.301199
0.296488
0.291935
0.287545
0.283322
0.279270
0.275395
0.271699
0.268188
0.264866
0.261736
0.258803
0.256070
0.253542
0.251221
0.249110
0.247214
0.245533
0.244072
0.242832
0.241814
0.241022
0.240454
0.240114
0.240000
0.240114
0.240454
0.241022
0.241814
0.242832
0.244072
0.245533
0.247214
0.249110
0.251221
0.253542
0.256070
0.258803
0.261736
0.264866
0.268188
0.271699
0.275395
0.279270
0.283322
0.287545
0.291935
0.296488
0.301199
0.306063
0.311077
0.316236
0.321536
0.326972
0.332541
0.338238
0.344059
0.350000
0.356058
0.362228
0.368507
0.374891
0.381378
0.387963
0.197321
0.269087
0.530068
0.522011
0.514003
0.506045
0.498140
0.490290
0.482495
0.474759
0.467083
0.459469
0.451920
0.444438
0.437024
0.429682
0.422415
0.415224
0.408112
0.401082
0.394138
0.387282
0.380517
0.373847
0.367274
0.360803
0.354437
0.348179
0.342033
0.336004
0.330094
0.324309
0.318652
0.313128
0.307740
0.302494
0.297393
0.292443
0.287647
0.283011
0.278539
0.274236
0.270106
0.266154
0.262385
0.258803
0.255412
0.252217
0.249222
0.246430
0.243847
0.241475
0.239318
0.237379
0.235660
0.234166
0.232897
0.231856
0.231045
0.230465
0.230116
0.230000
0.230116
0.230465
0.231045
0.231856
0.232897
0.234166
0.235660
0.237379
0.239318
0.241475
0.243847
0.246430
0.249222
0.252217
0.255412
0.258803
0.262385
0.266154
0.270106
0.274236
0.278539
0.283011
0.287647
0.292443
0.297393
0.302494
0.307740
0.313128
0.318652
0.324309
0.330094
0.336004
0.342033
0.348179
0.354437
0.360803
0.367274
0.373847
0.380517
0.193641
0.266197
0.524224
0.516101
0.508025
0.500000
0.492026
0.484105
0.476240
0.468431
0.460681
0.452993
0.445368
0.437809
0.430317
0.422896
0.415549
0.408276
0.401082
0.393970
0.386941
0.380000
0.373149
0.366392
0.359732
0.353173
0.346717
0.340370
0.334135
0.328015
0.322015
0.316140
0.310392
0.304777
0.299300
0.293964
0.288774
0.283735
0.278853
0.274131
0.269574
0.265188
0.260977
0.256946
0.253100
0.249444
0.245982
0.242719
0.239659
0.236807
0.234166
0.231741
0.229535
0.227551
0.225793
0.224264
0.222966
0.221900
0.221070
0.220476
0.220119
0.220000
0.220119
0.220476
0.221070
0.221900
0.222966
0.224264
0.225793
0.227551
0.229535
0.231741
0.234166
0.236807
0.239659
0.242719
0.245982
0.249444
0.253100
0.256946
0.260977
0.265188
0.269574
0.274131
0.278853
0.283735
0.288774
0.293964
0.299300
0.304777
0.310392
0.316140
0.322015
0.328015
0.334135
0.340370
0.346717
0.353173
0.359732
0.366392
0.373149
0.190000
0.263352
0.518471
0.510282
0.502140
0.494046
0.486003
0.478012
0.470075
0.462193
0.454370
0.446607
0.438905
0.431269
0.423699
0.416198
0.408769
0.401415
0.394138
0.386941
0.379828
0.372800
0.365862
0.359017
0.352268
0.345619
0.339073
0.332635
0.326308
0.320096
0.314004
0.308035
0.302195
0.296488
0.290918
0.285489
0.280208
0.275079
0.270106
0.265296
0.260652
0.256180
0.251885
0.247772
0.243847
0.240114
0.236578
0.233244
0.230116
0.227200
0.224500
0.222019
0.219762
0.217732
0.215933
0.214367
0.213038
0.211947
0.211096
0.210488
0.210122
0.210000
0.210122
0.210488
0.211096
0.211947
0.213038
0.214367
0.215933
0.217732
0.219762
0.222019
0.224500
0.227200
0.230116
0.233244
0.236578
0.240114
0.243847
0.247772
0.251885
0.256180
0.260652
0.265296
0.270106
0.275079
0.280208
0.285489
0.290918
0.296488
0.302195
0.308035
0.314004
0.320096
0.326308
0.332635
0.339073
0.345619
0.352268
0.359017
0.365862
0.186400
0.260555
0.512811
0.504557
0.496348
0.488186
0.480074
0.472012
0.464003
0.456049
0.448151
0.440312
0.432535
0.424820
0.417171
0.409590
0.402080
0.394643
0.387282
0.380000
0.372800
0.365685
0.358659
0.351725
0.344885
0.338145
0.331507
0.324976
0.318556
0.312250
0.306063
0.300000
0.294065
0.288262
0.282597
0.277074
0.271699
0.266476
0.261411
0.256508
0.251774
0.247214
0.242832
0.238634
0.234626
0.230813
0.227200
0.223792
0.220595
0.217612
0.214849
0.212311
0.210000
0.207922
0.206079
0.204475
0.203113
0.201995
0.201123
0.200500
0.200125
0.200000
0.200125
0.200500
0.201123
0.201995
0.203113
0.204475
0.206079
0.207922
0.210000
0.212311
0.214849
0.217612
0.220595
0.223792
0.227200
0.230813
0.234626
0.238634
0.242832
0.247214
0.251774
0.256508
0.261411
0.266476
0.271699
0.277074
0.282597
0.288262
0.294065
0.300000
0.306063
0.312250
0.318556
0.324976
0.331507
0.338145
0.344885
0.351725
0.358659
0.182843
0.257806
0.507248
0.498928
0.490652
0.482422
0.474240
0.466108
0.458027
0.450000
0.442028
0.434114
0.426259
0.418466
0.410737
0.403075
0.395483
0.387963
0.380517
0.373149
0.365862
0.358659
0.351543
0.344518
0.337587
0.330754
0.324023
0.317397
0.310882
0.304480
0.298197
0.292037
0.286004
0.280104
0.274342
0.268722
0.263249
0.257930
0.252769
0.247772
0.242945
0.238292
0.233820
0.229535
0.225441
0.221545
0.217852
0.214367
0.211096
0.208044
0.205216
0.202616
0.200250
0.198121
0.196232
0.194588
0.193192
0.192046
0.191152
0.190512
0.190128
0.190000
0.190128
0.190512
0.191152
0.192046
0.193192
0.194588
0.196232
0.198121
0.200250
0.202616
0.205216
0.208044
0.211096
0.214367
0.217852
0.221545
0.225441
0.229535
0.233820
0.238292
0.242945
0.247772
0.252769
0.257930
0.263249
0.268722
0.274342
0.280104
0.286004
0.292037