<VTKFile type="StructuredGrid" version="0.1" byte_order="LittleEndian">
<StructuredGrid WholeExtent="1 101 1 101 0 0">
<Piece Extent="1 101 51 101 0 0">
<PointData></PointData>
<CellData></CellData>
<Points>
<DataArray NumberOfComponents="3" format="ascii" type ="Float32" Name="mesh">
0.000000 0.500000 0.0
0.010000 0.500000 0.0
0.020000 0.500000 0.0
0.030000 0.500000 0.0
0.040000 0.500000 0.0
0.050000 0.500000 0.0
0.060000 0.500000 0.0
0.070000 0.500000 0.0
0.080000 0.500000 0.0
0.090000 0.500000 0.0
0.100000 0.500000 0.0
0.110000 0.500000 0.0
0.120000 0.500000 0.0
0.130000 0.500000 0.0
0.140000 0.500000 0.0
0.150000 0.500000 0.0
0.160000 0.500000 0.0
0.170000 0.500000 0.0
0.180000 0.500000 0.0
0.190000 0.500000 0.0
0.200000 0.500000 0.0
0.210000 0.500000 0.0
0.220000 0.500000 0.0
0.230000 0.500000 0.0
0.240000 0.500000 0.0
0.250000 0.500000 0.0
0.260000 0.500000 0.0
0.270000 0.500000 0.0
0.280000 0.500000 0.0
0.290000 0.500000 0.0
0.300000 0.500000 0.0
0.310000 0.500000 0.0
0.320000 0.500000 0.0
0.330000 0.500000 0.0
0.340000 0.500000 0.0
0.350000 0.500000 0.0
0.360000 0.500000 0.0
0.370000 0.500000 0.0
0.380000 0.500000 0.0
0.390000 0.500000 0.0
0.400000 0.500000 0.0
0.410000 0.500000 0.0
0.420000 0.500000 0.0
0.430000 0.500000 0.0
0.440000 0.500000 0.0
0.450000 0.500000 0.0
0.460000 0.500000 0.0
0.470000 0.500000 0.0
0.480000 0.500000 0.0
0.490000 0.500000 0.0
0.500000 0.500000 0.0
0.510000 0.500000 0.0
0.520000 0.500000 0.0
0.530000 0.500000 0.0
0.540000 0.500000 0.0
0.550000 0.500000 0.0
0.560000 0.500000 0.0
0.570000 0.500000 0.0
0.580000 0.500000 0.0
0.590000 0.500000 0.0
0.600000 0.500000 0.0
0.610000 0.500000 0.0
0.620000 0.500000 0.0
0.630000 0.500000 0.0
0.640000 0.500000 0.0
0.650000 0.500000 0.0
0.660000 0.500000 0.0
0.670000 0.500000 0.0
0.680000 0.500000 0.0
0.690000 0.500000 0.0
0.700000 0.500000 0.0
0.710000 0.500000 0.0
0.720000 0.500000 0.0
0.730000 0.500000 0.0
0.740000 0.500000 0.0
0.750000 0.500000 0.0
0.760000 0.500000 0.0
0.770000 0.500000 0.0
0.780000 0.500000 0.0
0.790000 0.500000 0.0
0.800000 0.500000 0.0
0.810000 0.500000 0.0
0.820000 0.500000 0.0
0.830000 0.500000 0.0
0.840000 0.500000 0.0
0.850000 0.500000 0.0
0.860000 0.500000 0.0
0.870000 0.500000 0.0
0.880000 0.500000 0.0
0.890000 0.500000 0.0
0.900000 0.500000 0.0
0.910000 0.500000 0.0
0.920000 0.500000 0.0
0.930000 0.500000 0.0
0.940000 0.500000 0.0
0.950000 0.500000 0.0
0.960000 0.500000 0.0
0.970000 0.500000 0.0
0.980000 0.500000 0.0
0.990000 0.500000 0.0
1.000000 0.500000 0.0
0.000000 0.510000 0.0
0.010000 0.510000 0.0
0.020000 0.510000 0.0
0.030000 0.510000 0.0
0.040000 0.510000 0.0
0.050000 0.510000 0.0
0.060000 0.510000 0.0
0.070000 0.510000 0.0
0.080000 0.510000 0.0
0.090000 0.510000 0.0
0.100000 0.510000 0.0
0.110000 0.510000 0.0
0.120000 0.510000 0.0
0.130000 0.510000 0.0
0.140000 0.510000 0.0
0.150000 0.510000 0.0
0.160000 0.510000 0.0
0.170000 0.510000 0.0
0.180000 0.510000 0.0
0.190000 0.510000 0.0
0.200000 0.510000 0.0
0.210000 0.510000 0.0
0.220000 0.510000 0.0
0.230000 0.510000 0.0
0.240000 0.510000 0.0
0.250000 0.510000 0.0
0.260000 0.510000 0.0
0.270000 0.510000 0.0
0.280000 0.510000 0.0
0.290000 0.510000 0.0
0.300000 0.510000 0.0
0.310000 0.510000 0.0
0.320000 0.510000 0.0
0.330000 0.510000 0.0
0.340000 0.510000 0.0
0.350000 0.510000 0.0
0.360000 0.510000 0.0
0.370000 0.510000 0.0
0.380000 0.510000 0.0
0.390000 0.510000 0.0
0.400000 0.510000 0.0
0.410000 0.510000 0.0
0.420000 0.510000 0.0
0.430000 0.510000 0.0
0.440000 0.510000 0.0
0.450000 0.510000 0.0
0.460000 0.510000 0.0
0.470000 0.510000 0.0
0.480000 0.510000 0.0
0.490000 0.510000 0.0
0.500000 0.510000 0.0
0.510000 0.510000 0.0
0.520000 0.510000 0.0
0.530000 0.510000 0.0
0.540000 0.510000 0.0
0.550000 0.510000 0.0
0.560000 0.510000 0.0
0.570000 0.510000 0.0
0.580000 0.510000 0.0
0.590000 0.510000 0.0
0.600000 0.510000 0.0
0.610000 0.510000 0.0
0.620000 0.510000 0.0
0.630000 0.510000 0.0
0.640000 0.510000 0.0
0.650000 0.510000 0.0
0.660000 0.510000 0.0
0.670000 0.510000 0.0
0.680000 0.510000 0.0
0.690000 0.510000 0.0
0.700000 0.510000 0.0
0.710000 0.510000 0.0
0.720000 0.510000 0.0
0.730000 0.510000 0.0
0.740000 0.510000 0.0
0.750000 0.510000 0.0
0.760000 0.510000 0.0
0.770000 0.510000 0.0
0.780000 0.510000 0.0
0.790000 0.510000 0.0
0.800000 0.510000 0.0
0.810000 0.510000 0.0
0.820000 0.510000 0.0
0.830000 0.510000 0.0
0.840000 0.510000 0.0
0.850000 0.510000 0.0
0.860000 0.510000 0.0
0.870000 0.510000 0.0
0.880000 0.510000 0.0
0.890000 0.510000 0.0
0.900000 0.510000 0.0
0.910000 0.510000 0.0
0.920000 0.510000 0.0
0.930000 0.510000 0.0
0.940000 0.510000 0.0
0.950000 0.510000 0.0
0.960000 0.510000 0.0
0.970000 0.510000 0.0
0.980000 0.510000 0.0
0.990000 0.510000 0.0
1.000000 0.510000 0.0
0.000000 0.520000 0.0
0.010000 0.520000 0.0
0.020000 0.520000 0.0
0.030000 0.520000 0.0
0.040000 0.520000 0.0
0.050000 0.520000 0.0
0.060000 0.520000 0.0
0.070000 0.520000 0.0
0.080000 0.520000 0.0
0.090000 0.520000 0.0
0.100000 0.520000 0.0
0.110000 0.520000 0.0
0.120000 0.520000 0.0
0.130000 0.520000 0.0
0.140000 0.520000 0.0
0.150000 0.520000 0.0
0.160000 0.520000 0.0
0.170000 0.520000 0.0
0.180000 0.520000 0.0
0.190000 0.520000 0.0
0.200000 0.520000 0.0
0.210000 0.520000 0.0
0.220000 0.520000 0.0
0.230000 0.520000 0.0
0.240000 0.520000 0.0
0.250000 0.520000 0.0
0.260000 0.520000 0.0
0.270000 0.520000 0.0
0.280000 0.520000 0.0
0.290000 0.520000 0.0
0.300000 0.520000 0.0
0.310000 0.520000 0.0
0.320000 0.520000 0.0
0.330000 0.520000 0.0
0.340000 0.520000 0.0
0.350000 0.520000 0.0
0.360000 0.520000 0.0
0.370000 0.520000 0.0
0.380000 0.520000 0.0
0.390000 0.520000 0.0
0.400000 0.520000 0.0
0.410000 0.520000 0.0
0.420000 0.520000 0.0
0.430000 0.520000 0.0
0.440000 0.520000 0.0
0.450000 0.520000 0.0
0.460000 0.520000 0.0
0.470000 0.520000 0.0
0.480000 0.520000 0.0
0.490000 0.520000 0.0
0.500000 0.520000 0.0
0.510000 0.520000 0.0
0.520000 0.520000 0.0
0.530000 0.520000 0.0
0.540000 0.520000 0.0
0.550000 0.520000 0.0
0.560000 0.520000 0.0
0.570000 0.520000 0.0
0.580000 0.520000 0.0
0.590000 0.520000 0.0
0.600000 0.520000 0.0
0.610000 0.520000 0.0
0.620000 0.520000 0.0
0.630000 0.520000 0.0
0.640000 0.520000 0.0
0.650000 0.520000 0.0
0.660000 0.520000 0.0
0.670000 0.520000 0.0
0.680000 0.520000 0.0
0.690000 0.520000 0.0
0.700000 0.520000 0.0
0.710000 0.520000 0.0
0.720000 0.520000 0.0
0.730000 0.520000 0.0
0.740000 0.520000 0.0
0.750000 0.520000 0.0
0.760000 0.520000 0.0
0.770000 0.520000 0.0
0.780000 0.520000 0.0
0.790000 0.520000 0.0
0.800000 0.520000 0.0
0.810000 0.520000 0.0
0.820000 0.520000 0.0
0.830000 0.520000 0.0
0.840000 0.520000 0.0
0.850000 0.520000 0.0
0.860000 0.520000 0.0
0.870000 0.520000 0.0
0.880000 0.520000 0.0
0.890000 0.520000 0.0
0.900000 0.520000 0.0
0.910000 0.520000 0.0
0.920000 0.520000 0.0
0.930000 0.520000 0.0
0.940000 0.520000 0.0
0.950000 0.520000 0.0
0.960000 0.520000 0.0
0.970000 0.520000 0.0
0.980000 0.520000 0.0
0.990000 0.520000 0.0
1.000000 0.520000 0.0
0.000000 0.530000 0.0
0.010000 0.530000 0.0
0.020000 0.530000 0.0
0.030000 0.530000 0.0
0.040000 0.530000 0.0
0.050000 0.530000 0.0
0.060000 0.530000 0.0
0.070000 0.530000 0.0
0.080000 0.530000 0.0
0.090000 0.530000 0.0
0.100000 0.530000 0.0
0.110000 0.530000 0.0
0.120000 0.530000 0.0
0.130000 0.530000 0.0
0.140000 0.530000 0.0
0.150000 0.530000 0.0
0.160000 0.530000 0.0
0.170000 0.530000 0.0
0.180000 0.530000 0.0
0.190000 0.530000 0.0
0.200000 0.530000 0.0
0.210000 0.530000 0.0
0.220000 0.530000 0.0
0.230000 0.530000 0.0
0.240000 0.530000 0.0
0.250000 0.530000 0.0
0.260000 0.530000 0.0
0.270000 0.530000 0.0
0.280000 0.530000 0.0
0.290000 0.530000 0.0
0.300000 0.530000 0.0
0.310000 0.530000 0.0
0.320000 0.530000 0.0
0.330000 0.530000 0.0
0.340000 0.530000 0.0
0.350000 0.530000 0.0
0.360000 0.530000 0.0
0.370000 0.530000 0.0
0.380000 0.530000 0.0
0.390000 0.530000 0.0
0.400000 0.530000 0.0
0.410000 0.530000 0.0
0.420000 0.530000 0.0
0.430000 0.530000 0.0
0.440000 0.530000 0.0
0.450000 0.530000 0.0
0.460000 0.530000 0.0
0.470000 0.530000 0.0
0.480000 0.530000 0.0
0.490000 0.530000 0.0
0.500000 0.530000 0.0
0.510000 0.530000 0.0
0.520000 0.530000 0.0
0.530000 0.530000 0.0
0.540000 0.530000 0.0
0.550000 0.530000 0.0
0.560000 0.530000 0.0
0.570000 0.530000 0.0
0.580000 0.530000 0.0
0.590000 0.530000 0.0
0.600000 0.530000 0.0
0.610000 0.530000 0.0
0.620000 0.530000 0.0
0.630000 0.530000 0.0
0.640000 0.530000 0.0
0.650000 0.530000 0.0
0.660000 0.530000 0.0
0.670000 0.530000 0.0
0.680000 0.530000 0.0
0.690000 0.530000 0.0
0.700000 0.530000 0.0
0.710000 0.530000 0.0
0.720000 0.530000 0.0
0.730000 0.530000 0.0
0.740000 0.530000 0.0
0.750000 0.530000 0.0
0.760000 0.530000 0.0
0.770000 0.530000 0.0
0.780000 0.530000 0.0
0.790000 0.530000 0.0
0.800000 0.530000 0.0
0.810000 0.530000 0.0
0.820000 0.530000 0.0
0.830000 0.530000 0.0
0.840000 0.530000 0.0
0.850000 0.530000 0.0
0.860000 0.530000 0.0
0.870000 0.530000 0.0
0.880000 0.530000 0.0
0.890000 0.530000 0.0
0.900000 0.530000 0.0
0.910000 0.530000 0.0
0.920000 0.530000 0.0
0.930000 0.530000 0.0
0.940000 0.530000 0.0
0.950000 0.530000 0.0
0.960000 0.530000 0.0
0.970000 0.530000 0.0
0.980000 0.530000 0.0
0.990000 0.530000 0.0
1.000000 0.530000 0.0
0.000000 0.540000 0.0
0.010000 0.540000 0.0
0.020000 0.540000 0.0
0.030000 0.540000 0.0
0.040000 0.540000 0.0
0.050000 0.540000 0.0
0.060000 0.540000 0.0
0.070000 0.540000 0.0
0.080000 0.540000 0.0
0.090000 0.540000 0.0
0.100000 0.540000 0.0
0.110000 0.540000 0.0
0.120000 0.540000 0.0
0.130000 0.540000 0.0
0.140000 0.540000 0.0
0.150000 0.540000 0.0
0.160000 0.540000 0.0
0.170000 0.540000 0.0
0.180000 0.540000 0.0
0.190000 0.540000 0.0
0.200000 0.540000 0.0
0.210000 0.540000 0.0
0.220000 0.540000 0.0
0.230000 0.540000 0.0
0.240000 0.540000 0.0
0.250000 0.540000 0.0
0.260000 0.540000 0.0
0.270000 0.540000 0.0
0.280000 0.540000 0.0
0.290000 0.540000 0.0
0.300000 0.540000 0.0
0.310000 0.540000 0.0
0.320000 0.540000 0.0
0.330000 0.540000 0.0
0.340000 0.540000 0.0
0.350000 0.540000 0.0
0.360000 0.540000 0.0
[...]
<PointData>
<DataArray NumberOfComponents="1" format="ascii" type ="Float32" Name="phi">
0.204138
0.398415
0.388558
0.378705
0.368859
0.359017
0.349181
0.339351
0.329528
0.319711
0.309902
0.300100
0.290306
0.280521
0.270744
0.260977
0.251221
0.241475
0.231741
0.222019
0.212311
0.202616
0.192938
0.183275
0.173631
0.164005
0.154401
0.144819
0.135261
0.125730
0.116228
0.106757
0.097321
0.087924
0.078568
0.069258
0.060000
0.050799
0.041661
0.032594
0.023607
0.014709
0.005913
-0.002769
-0.011320
-0.019722
-0.027953
-0.035988
-0.043795
-0.051339
-0.058579
-0.065464
-0.071937
-0.077934
-0.083381
-0.088197
-0.092297
-0.095597
-0.098020
-0.099501
-0.100000
-0.099501
-0.098020
-0.095597
-0.092297
-0.088197
-0.083381
-0.077934
-0.071937
-0.065464
-0.058579
-0.051339
-0.043795
-0.035988
-0.027953
-0.019722
-0.011320
-0.002769
0.005913
0.014709
0.023607
0.032594
0.041661
0.050799
0.060000
0.069258
0.078568
0.087924
0.097321
0.106757
0.116228
0.125730
0.135261
0.144819
0.154401
0.164005
0.173631
0.183275
0.192938
0.202616
0.106155
0.203356
0.396825
0.386941
0.377062
0.367186
0.357315
0.347449
0.337587
0.327731
0.317880
0.308035
0.298197
0.288365
0.278539
0.268722
0.258912
0.249110
0.239318
0.229535
0.219762
0.210000
0.200250
0.190512
0.180789
0.171080
0.161386
0.151710
0.142053
0.132415
0.122800
0.113209
0.103645
0.094109
0.084605
0.075136
0.065707
0.056320
0.046982
0.037697
0.028473
0.019317
0.010238
0.001246
-0.007646
-0.016424
-0.025071
-0.033567
-0.041886
-0.050000
-0.057873
-0.065464
-0.072721
-0.079584
-0.085982
-0.091833
-0.097044
-0.101511
-0.105132
-0.107805
-0.109446
-0.110000
-0.109446
-0.107805
-0.105132
-0.101511
-0.097044
-0.091833
-0.085982
-0.079584
-0.072721
-0.065464
-0.057873
-0.050000
-0.041886
-0.033567
-0.025071
-0.016424
-0.007646
0.001246
0.010238
0.019317
0.028473
0.037697
0.046982
0.056320
0.065707
0.075136
0.084605
0.094109
0.103645
0.113209
0.122800
0.132415
0.142053
0.151710
0.161386
0.171080
0.180789
0.190512
0.200250
0.105000
0.202655
0.395399
0.385491
0.375587
0.365685
0.355788
0.345894
0.336004
0.326118
0.316236
0.306360
0.296488
0.286621
0.276760
0.266905
0.257056
0.247214
0.237379
0.227551
0.217732
0.207922
0.198121
0.188330
0.178550
0.168782
0.159026
0.149285
0.139559
0.129848
0.120156
0.110483
0.100832
0.091204
0.081603
0.072029
0.062488
0.052982
0.043516
0.034094
0.024722
0.015407
0.006155
-0.003023
-0.012117
-0.021115
-0.030000
-0.038755
-0.047357
-0.055778
-0.063985
-0.071937
-0.079584
-0.086863
-0.093698
-0.100000
-0.105660
-0.110557
-0.114560
-0.117538
-0.119378
-0.120000
-0.119378
-0.117538
-0.114560
-0.110557
-0.105660
-0.100000
-0.093698
-0.086863
-0.079584
-0.071937
-0.063985
-0.055778
-0.047357
-0.038755
-0.030000
-0.021115
-0.012117
-0.003023
0.006155
0.015407
0.024722
0.034094
0.043516
0.052982
0.062488
0.072029
0.081603
0.091204
0.100832
0.110483
0.120156
0.129848
0.139559
0.149285
0.159026
0.168782
0.178550
0.188330
0.198121
0.103961
0.202035
0.394138
0.384209
0.374282
0.364358
0.354437
0.344518
0.334603
0.324690
0.314782
0.304876
0.294975
0.285077
0.275184
0.265296
0.255412
0.245533
0.235660
0.225793
0.215933
0.206079
0.196232
0.186394
0.176563
0.166742
0.156931
0.147131
0.137343
0.127567
0.117805
0.108058
0.098329
0.088617
0.078927
0.069258
0.059615
0.050000
0.040416
0.030868
0.021359
0.011896
0.002485
-0.006868
-0.016152
-0.025358
-0.034471
-0.043475
-0.052352
-0.061076
-0.069616
-0.077934
-0.085982
-0.093698
-0.101005
-0.107804
-0.113977
-0.119377
-0.123842
-0.127199
-0.129290
-0.130000
-0.129290
-0.127199
-0.123842
-0.119377
-0.113977
-0.107804
-0.101005
-0.093698
-0.085982
-0.077934
-0.069616
-0.061076
-0.052352
-0.043475
-0.034471
-0.025358
-0.016152
-0.006868
0.002485
0.011896
0.021359
0.030868
0.040416
0.050000
0.059615
0.069258
0.078927
0.088617
0.098329
0.108058
0.117805
0.127567
0.137343
0.147131
0.156931
0.166742
0.176563
0.186394
0.196232
0.103039
0.201496
0.393043
0.383095
0.373149
0.363205
0.353263
0.343323
0.333385
0.323450
0.313517
0.303587
0.293660
0.283735
0.273814
0.263897
0.253982
0.244072
0.234166
0.224264
0.214367
0.204475
0.194588
0.184708
0.174833
0.164966
0.155106
0.145254
0.135410
0.125576
0.115753
0.105941
0.096142
0.086356
0.076586
0.066833
0.057099
0.047386
0.037697
0.028035
0.018403
0.008806
-0.000751
-0.010263
-0.019722
-0.029120
-0.038445
-0.047685
-0.056822
-0.065836
-0.074700
-0.083381
-0.091833
-0.100000
-0.107804
-0.115147
-0.121897
-0.127889
-0.132918
-0.136754
-0.139173
-0.140000
-0.139173
-0.136754
-0.132918
-0.127889
-0.121897
-0.115147
-0.107804
-0.100000
-0.091833
-0.083381
-0.074700
-0.065836
-0.056822
-0.047685
-0.038445
-0.029120
-0.019722
-0.010263
-0.000751
0.008806
0.018403
0.028035
0.037697
0.047386
0.057099
0.066833
0.076586
0.086356
0.096142
0.105941
0.115753
0.125576
0.135410
0.145254
0.155106
0.164966
0.174833
0.184708
0.194588
0.102237
0.201040
0.392115
0.382151
0.372189
0.362228
0.352268
0.342310
0.332353
0.322398
0.312445
0.302494
0.292544
0.282597
0.272652
0.262709
0.252769
0.242832
0.232897
0.222966
0.213038
0.203113
0.193192
0.183275
0.173363
0.163456
0.153553
0.143657
0.133766
0.123883
0.114006
0.104138
0.094279
0.084429
0.074591
0.064764
0.054951
0.045153
0.035372
0.025610
0.015870
0.006155
-0.003531
-0.013185
-0.022800
-0.032369
-0.041886
-0.051339
-0.060716
-0.070000
-0.079170
-0.088197
-0.097044
-0.105660
-0.113977
-0.121897
-0.129289
-0.135968
-0.141690
-0.146148
-0.149010
-0.150001
-0.149010
-0.146148
-0.141690
-0.135968
-0.129289
-0.121897
-0.113977
-0.105660
-0.097044
-0.088197
-0.079170
-0.070000
-0.060716
-0.051339
-0.041886
-0.032369
-0.022800
-0.013185
-0.003531
0.006155
0.015870
0.025610
0.035372
0.045153
0.054951
0.064764
0.074591
0.084429
0.094279
0.104138
0.114006
0.123883
0.133766
0.143657
0.153553
0.163456
0.173363
0.183275
0.193192
0.101556
0.200666
0.391354
0.381378
0.371402
0.361427
0.351453
0.341479
0.331507
0.321536
0.311566
0.301597
0.291630
0.281664
0.271699
0.261736
0.251774
0.241814
0.231856
0.221900
0.211947
0.201995
0.192046
0.182099
0.172156
0.162215
0.152278
0.142345
0.132415
0.122490
0.112570
0.102655
0.092746
0.082843
0.072947
0.063059
0.053180
0.043310
0.033452
0.023607
0.013776
0.003961
-0.005835
-0.015609
-0.025358
-0.035076
-0.044758
-0.054398
-0.063985
-0.073509
-0.082953
-0.092297
-0.101511
-0.110557
-0.119377
-0.127889
-0.135968
-0.143431
-0.149999
-0.155278
-0.158770
-0.160001
-0.158770
-0.155278
-0.149999
-0.143431
-0.135968
-0.127889
-0.119377
-0.110557
-0.101511
-0.092297
-0.082953
-0.073509
-0.063985
-0.054398
-0.044758
-0.035076
-0.025358
-0.015609
-0.005835
0.003961
0.013776
0.023607
0.033452
0.043310
0.053180
0.063059
0.072947
0.082843
0.092746
0.102655
0.112570
0.122490
0.132415
0.142345
0.152278
0.162215
0.172156
0.182099
0.192046
0.100998
0.200375
0.390762
0.380775
0.370789
0.360803
0.350818
0.340833
0.330848
0.320865
0.310882
0.300899
0.290918
0.280937
0.270956
0.260977
0.250999
0.241022
0.231045
0.221070
0.211096
0.201123
0.191152
0.181182
0.171214
0.161248
0.151283
0.141321
0.131361
0.121403
0.111448
0.101496
0.091548
0.081603
0.071662
0.061725
0.051794
0.041868
0.031948
0.022036
0.012132
0.002237
-0.007646
-0.017517
-0.027373
-0.037212
-0.047029
-0.056822
-0.066583
-0.076307
-0.085982
-0.095597
-0.105132
-0.114560
-0.123842
-0.132918
-0.141690
-0.149999
-0.157572
-0.163942
-0.168377
-0.170003
-0.168377
-0.163942
-0.157572
-0.149999
-0.141690
-0.132918
-0.123842
-0.114560
-0.105132
-0.095597
-0.085982
-0.076307
-0.066583
-0.056822
-0.047029
-0.037212
-0.027373
-0.017517
-0.007646
0.002237
0.012132
0.022036
0.031948
0.041868
0.051794
0.061725
0.071662
0.081603
0.091548
0.101496
0.111448
0.121403
0.131361
0.141321
0.151283
0.161248
0.171214
0.181182
0.191152
0.100562
0.200167
0.390339
0.380345
0.370351
0.360357
0.350364
0.340370
0.330377
0.320384
0.310392
0.300400
0.290408
0.280416
0.270425
0.260435
0.250444
0.240454
0.230465
0.220476
0.210488
0.200500
0.190512
0.180526
0.170540
0.160555
0.150571
0.140588
0.130606
0.120624
0.110644
0.100666
0.090689
0.080713
0.070740
0.060768
0.050799
0.040832
0.030868
0.020907
0.010950
0.000998
-0.008950
-0.018892
-0.028828
-0.038755
-0.048673
-0.058579
-0.068471
-0.078345
-0.088197
-0.098020
-0.107805
-0.117538
-0.127199
-0.136754
-0.146148
-0.155278
-0.163942
-0.171710
-0.177634
-0.180011
-0.177634
-0.171710
-0.163942
-0.155278
-0.146148
-0.136754
-0.127199
-0.117538
-0.107805
-0.098020
-0.088197
-0.078345
-0.068471
-0.058579
-0.048673
-0.038755
-0.028828
-0.018892
-0.008950
0.000998
0.010950
0.020907
0.030868
0.040832
0.050799
0.060768
0.070740
0.080713
0.090689
0.100666
0.110644
0.120624
0.130606
0.140588
0.150571
0.160555
0.170540
0.180526
0.190512
0.100250
0.200042
0.390085
0.380086
0.370088
0.360089
0.350091
0.340093
0.330094
0.320096
0.310098
0.300100
0.290102
0.280104
0.270106
0.260109
0.250111
0.240114
0.230116
0.220119
0.210122
0.200125
0.190128
0.180132
0.170135
0.160139
0.150143
0.140147
0.130151
0.120156
0.110161
0.100167
0.090172
0.080179
0.070185
0.060192
0.050200
0.040208
0.030217
0.020227
0.010238
0.000250
-0.009737
-0.019722
-0.029706
-0.039688
-0.049667
-0.059643
-0.069616
-0.079584
-0.089546
-0.099501
-0.109446
-0.119378
-0.129290
-0.139173
-0.149010
-0.158770
-0.168377
-0.177634
-0.185826
-0.190061
-0.185826
-0.177634
-0.168377
-0.158770
-0.149010
-0.139173
-0.129290
-0.119378
-0.109446
-0.099501
-0.089546
-0.079584
-0.069616
-0.059643
-0.049667
-0.039688
-0.029706
-0.019722
-0.009737
0.000250
0.010238
0.020227
0.030217
0.040208
0.050200
0.060192
0.070185
0.080179
0.090172
0.100167
0.110161
0.120156
0.130151
0.140147
0.150143
0.160139
0.170135
0.180132
0.190128
0.100062
0.200000
0.390000
0.380000
0.370000
0.360000
0.350000
0.340000
0.330000
0.320000
0.310000
0.300000
0.290000
0.280000
0.270000
0.260000
0.250000
0.240000
0.230000
0.220000
0.210000
0.200000
0.190000
0.180000
0.170000
0.160000
0.150000
0.140000
0.130000
0.120000
0.110000
0.100000
0.090000
0.080000
0.070000
0.060000
0.050000
0.040000
0.030000
0.020000
0.010000
-0.000000
-0.010000
-0.020000
-0.030000
-0.040000
-0.050000
-0.060000
-0.070000
-0.080000
-0.090000
-0.100000
-0.110000
-0.120000
-0.130000
-0.140000
-0.150001
-0.160001
-0.170003
-0.180011
-0.190061
-0.200617
-0.190061
-0.180011
-0.170003
-0.160001
-0.150001
-0.140000
-0.130000
-0.120000
-0.110000
-0.100000
-0.090000
-0.080000
-0.070000
-0.060000
-0.050000
-0.040000
-0.030000
-0.020000
-0.010000
-0.000000
0.010000
0.020000
0.030000
0.040000
0.050000
0.060000
0.070000
0.080000
0.090000
0.100000
0.110000
0.120000
0.130000
0.140000
0.150000
0.160000
0.170000
0.180000
0.190000
0.100000
0.200042
0.390085
0.380086
0.370088
0.360089
0.350091
0.340093
0.330094
0.320096
0.310098
0.300100
0.290102
0.280104
0.270106
0.260109
0.250111
0.240114
0.230116
0.220119
0.210122
0.200125
0.190128
0.180132
0.170135
0.160139
0.150143
0.140147
0.130151
0.120156
0.110161
0.100167
0.090172
0.080179
0.070185
0.060192
0.050200
0.040208
0.030217
0.020227
0.010238
0.000250
-0.009737
-0.019722
-0.029706
-0.039688
-0.049667
-0.059643
-0.069616
-0.079584
-0.089546
-0.099501
-0.109446
-0.119378
-0.129290
-0.139173
-0.149010
-0.158770
-0.168377
-0.177634
-0.185826
-0.190061
-0.185826
-0.177634
-0.168377
-0.158770
-0.149010
-0.139173
-0.129290
-0.119378
-0.109446
-0.099501
-0.089546
-0.079584
-0.069616
-0.059643
-0.049667
-0.039688
-0.029706
-0.019722
-0.009737
0.000250
0.010238
0.020227
0.030217
0.040208
0.050200
0.060192
0.070185
0.080179
0.090172
0.100167
0.110161
0.120156
0.130151
0.140147
0.150143
0.160139
0.170135
0.180132
0.190128
0.100062
0.200167
0.390339
0.380345
0.370351
0.360357
0.350364
0.340370
0.330377
0.320384
0.310392
0.300400
0.290408
0.280416
0.270425
0.260435
0.250444
0.240454
0.230465
0.220476
0.210488
0.200500
0.190512
0.180526
0.170540
0.160555
0.150571
0.140588
0.130606
0.120624
0.110644
0.100666
0.090689
0.080713
0.070740
0.060768
0.050799
0.040832
0.030868
0.020907
0.010950
0.000998
-0.008950
-0.018892
-0.028828
-0.038755
-0.048673
-0.058579
-0.068471
-0.078345
-0.088197
-0.098020
-0.107805
-0.117538
-0.127199
-0.136754
-0.146148
-0.155278
-0.163942
-0.171710
-0.177634
-0.180011
-0.177634
-0.171710
-0.163942
-0.155278
-0.146148
-0.136754
-0.127199
-0.117538
-0.107805
-0.098020
-0.088197
-0.078345
-0.068471
-0.058579
-0.048673
-0.038755
-0.028828
-0.018892
-0.008950
0.000998
0.010950
0.020907
0.030868
0.040832
0.050799
0.060768
0.070740
0.080713
0.090689
0.100666
0.110644
0.120624
0.130606
0.140588
0.150571
0.160555
0.170540
0.180526
0.190512
0.100250
0.200375
0.390762
0.380775
0.370789
0.360803
0.350818
0.340833
0.330848
0.320865
0.310882
0.300899
0.290918
0.280937
0.270956
0.260977
0.250999
0.241022
0.231045
0.221070
0.211096
0.201123
0.191152
0.181182
0.171214
0.161248
0.151283
0.141321
0.131361
0.121403
0.111448
0.101496
0.091548
0.081603
0.071662
0.061725
0.051794
0.041868
0.031948
0.022036
0.012132
0.002237
-0.007646
-0.017517
-0.027373
-0.037212
-0.047029
-0.056822
-0.066583
-0.076307
-0.085982
-0.095597
-0.105132
-0.114560
-0.123842
-0.132918
-0.141690
-0.149999
-0.157572
-0.163942
-0.168377
-0.170003
-0.168377
-0.163942
-0.157572
-0.149999
-0.141690
-0.132918
-0.123842
-0.114560
-0.105132
-0.095597
-0.085982
-0.076307
-0.066583
-0.056822
-0.047029
-0.037212
-0.027373
-0.017517
-0.007646
0.002237
0.012132
0.022036
0.031948
0.041868
0.051794
0.061725
0.071662
0.081603
0.091548
0.101496
0.111448
0.121403
0.131361
0.141321
0.151283
0.161248
0.171214
0.181182
0.191152
0.100562
0.200666
0.391354
0.381378
0.371402
0.361427
0.351453
0.341479
0.331507
0.321536
0.311566
0.301597
0.291630
0.281664
0.271699
0.261736
0.251774
0.241814
0.231856
0.221900
0.211947
0.201995
0.192046
0.182099
0.172156
0.162215
0.152278
0.142345
0.132415
0.122490
0.112570
0.102655
0.092746
0.082843
0.072947
0.063059
0.053180
0.043310
0.033452
0.023607
0.013776
0.003961
-0.005835
-0.015609
-0.025358
-0.035076
-0.044758
-0.054398
-0.063985
-0.073509
-0.082953
-0.092297
-0.101511
-0.110557
-0.119377
-0.127889
-0.135968
-0.143431
-0.149999
-0.155278
-0.158770
-0.160001
-0.158770
-0.155278
-0.149999
-0.143431
-0.135968
-0.127889
-0.119377
-0.110557
-0.101511
-0.092297
-0.082953
-0.073509
-0.063985
-0.054398
-0.044758
-0.035076
-0.025358
-0.015609
-0.005835
0.003961
0.013776
0.023607
0.033452
0.043310
0.053180
0.063059
0.072947
0.082843
0.092746
0.102655
0.112570
0.122490
0.132415
0.142345
0.152278
0.162215
0.172156
0.182099
0.192046
0.100998
0.201040
0.392115
0.382151
0.372189
0.362228
0.352268
0.342310
0.332353
0.322398
0.312445
0.302494
0.292544
0.282597
0.272652
0.262709
0.252769
0.242832
0.232897
0.222966
0.213038
0.203113
0.193192
0.183275
0.173363
0.163456
0.153553
0.143657
0.133766
0.123883
0.114006
0.104138
0.094279
0.084429
0.074591
0.064764
0.054951
0.045153
0.035372
0.025610
0.015870
0.006155
-0.003531
-0.013185
-0.022800
-0.032369
-0.041886
-0.051339
-0.060716
-0.070000
-0.079170
-0.088197
-0.097044
-0.105660
-0.113977
-0.121897
-0.129289
-0.135968
-0.141690
-0.146148
-0.149010
-0.150001
-0.149010
-0.146148
-0.141690
-0.135968
-0.129289
-0.121897
-0.113977
-0.105660
-0.097044
-0.088197
-0.079170
-0.070000
-0.060716
-0.051339
-0.041886
-0.032369
-0.022800
-0.013185
-0.003531
0.006155
0.015870
0.025610
0.035372
0.045153
0.054951
0.064764
0.074591
0.084429
0.094279
0.104138
0.114006
0.123883
0.133766
0.143657
0.153553
0.163456
0.173363
0.183275
0.193192
0.101556
0.201496
0.393043
0.383095
0.373149
0.363205
0.353263
0.343323
0.333385
0.323450
0.313517
0.303587
0.293660
0.283735
0.273814
0.263897
0.253982
0.244072
0.234166
0.224264
0.214367
0.204475
0.194588
0.184708
0.174833
0.164966
0.155106
0.145254
0.135410
0.125576
0.115753
0.105941
0.096142
0.086356
0.076586
0.066833
0.057099
0.047386
0.037697
0.028035
0.018403
0.008806
-0.000751
-0.010263
-0.019722
-0.029120
-0.038445
-0.047685
-0.056822
-0.065836
-0.074700
-0.083381
-0.091833
-0.100000
-0.107804
-0.115147
-0.121897
-0.127889
-0.132918
-0.136754
-0.139173
-0.140000
-0.139173
-0.136754
-0.132918
-0.127889
-0.121897
-0.115147
-0.107804
-0.100000
-0.091833
-0.083381
-0.074700
-0.065836
-0.056822
-0.047685
-0.038445
-0.029120
-0.019722
-0.010263
-0.000751
0.008806
0.018403
0.028035
0.037697
0.047386
0.057099
0.066833
0.076586
0.086356
0.096142
0.105941
0.115753
0.125576
0.135410
0.145254
0.155106
0.164966
0.174833
0.184708
0.194588
0.102237
0.202035
0.394138
0.384209
0.374282
0.364358
0.354437
0.344518
0.334603
0.324690
0.314782
0.304876
0.294975
0.285077
0.275184
0.265296
0.255412
0.245533
0.235660
0.225793
0.215933
0.206079
0.196232
0.186394
0.176563
0.166742
0.156931
0.147131
0.137343
0.127567
0.117805
0.108058
0.098329
0.088617
0.078927
0.069258
0.059615
0.050000
0.040416
0.030868
0.021359
0.011896
0.002485
-0.006868
-0.016152
-0.025358
-0.034471
-0.043475
-0.052352
-0.061076
-0.069616
-0.077934
-0.085982
-0.093698
-0.101005
-0.107804
-0.113977
-0.119377
-0.123842
-0.127199
-0.129290
-0.130000
-0.129290
-0.127199
-0.123842
-0.119377
-0.113977
-0.107804
-0.101005
-0.093698
-0.085982
-0.077934
-0.069616
-0.061076
-0.052352
-0.043475
-0.034471
-0.025358
-0.016152
-0.006868
0.002485
0.011896
0.021359
0.030868
0.040416
0.050000
0.059615
0.069258
0.078927
0.088617
0.098329
0.108058
0.117805
0.127567
0.137343
0.147131
0.156931
0.166742
0.176563
0.186394
0.196232
0.103039
0.202655
0.395399
0.385491
0.375587
0.365685
0.355788
0.345894
0.336004
0.326118
0.316236
0.306360
0.296488
0.286621
0.276760
0.266905
0.257056
0.247214
0.237379
0.227551
0.217732
0.207922
0.198121
0.188330
0.178550
0.168782
0.159026
0.149285
0.139559
0.129848
0.120156
0.110483
0.100832
0.091204
0.081603
0.072029
0.062488
0.052982
0.043516
0.034094
0.024722
0.015407
0.006155
-0.003023
-0.012117
-0.021115
-0.030000
-0.038755
-0.047357
-0.055778
-0.063985
-0.071937
-0.079584
-0.086863
-0.093698
-0.100000
-0.105660
-0.110557
-0.114560
-0.117538
-0.119378
-0.120000
-0.119378
-0.117538
-0.114560
-0.110557
-0.105660
-0.100000
-0.093698
-0.086863
-0.079584
-0.071937
-0.063985
-0.055778
-0.047357
-0.038755
-0.030000
-0.021115
-0.012117
-0.003023
0.006155
0.015407
0.024722
0.034094
0.043516
0.052982
0.062488
0.072029
0.081603
0.091204
0.100832
0.110483
0.120156
0.129848
0.139559
0.149285
0.159026
0.168782
0.178550
0.188330
0.198121
0.103961
0.203356
0.396825
0.386941
0.377062
0.367186
0.357315
0.347449
0.337587
0.327731
0.317880
0.308035
0.298197
0.288365
0.278539
0.268722
0.258912
0.249110
0.239318
0.229535
0.219762
0.210000
0.200250
0.190512
0.180789
0.171080
0.161386
0.151710
0.142053
0.132415
0.122800
0.113209
0.103645
0.094109
0.084605
0.075136
0.065707
0.056320
0.046982
0.037697
0.028473
0.019317
0.010238
0.001246
-0.007646
-0.016424
-0.025071
-0.033567
-0.041886
-0.050000
-0.057873
-0.065464
-0.072721
-0.079584
-0.085982
-0.091833
-0.097044
-0.101511
-0.105132
-0.107805
-0.109446
-0.110000
-0.109446
-0.107805
-0.105132
-0.101511
-0.097044
-0.091833
-0.085982
-0.079584
-0.072721
-0.065464
-0.057873
-0.050000
-0.041886
-0.033567
-0.025071
-0.016424
-0.007646
0.001246
0.010238
0.019317
0.028473
0.037697
0.046982
0.056320
0.065707
0.075136
0.084605
0.094109
0.103645
0.113209
0.122800
0.132415
0.142053
0.151710
0.161386
0.171080
0.180789
0.190512
0.200250
0.105000
0.204138
0.398415
0.388558
0.378705
0.368859
0.359017
0.349181
0.339351
0.329528
0.319711
0.309902
0.300100
0.290306
0.280521
0.270744
0.260977
0.251221
0.241475
0.231741
0.222019
0.212311
0.202616
0.192938
0.183275
0.173631
0.164005
0.154401
0.144819
0.135261
0.125730
0.116228
0.106757
0.097321
0.087924
0.078568
0.069258
0.060000
0.050799
0.041661
0.032594
0.023607
0.014709
0.005913
-0.002769
-0.011320
-0.019722
-0.027953
-0.035988
-0.043795
-0.051339
-0.058579
-0.065464
-0.071937
-0.077934
-0.083381
-0.088197
-0.092297
-0.095597
-0.098020
-0.099501
-0.100000
-0.099501
-0.098020
-0.095597
-0.092297
-0.088197
-0.083381
-0.077934
-0.071937
-0.065464
-0.058579
-0.051339
-0.043795
-0.035988
-0.027953
-0.019722
-0.011320
-0.002769
0.005913
0.014709
0.023607
0.032594
0.041661
0.050799
0.060000
0.069258
0.078568
0.087924
0.097321
0.106757
0.116228
0.125730
0.135261
0.144819
0.154401
0.164005
0.173631
0.183275
0.192938
0.202616
0.106155
0.205000
0.400167